2
Lattice="2.1754117595 0.1031630823 0.1560284850 -1.1579754674 2.0748600691 0.1276547072 -0.0608153007 0.2307108010 4.2389594360" Properties=species:S:1:pos:R:3:force:R:3:Z:I:1 config_type=hcp energy=-6920.8594242112 pbc="T T T"
Fe -0.0621620453 1.4753715986 1.1968520190 0.0278172917 0.1847449004 -0.1306187838 26
Fe 1.0187812899 0.9333623538 3.3257917009 -0.0278172917 -0.1847449004 0.1306187838 26
2
Lattice="2.6753668249 0.3159411034 0.3604232364 -1.0750537349 2.3131687605 -0.0842458874 -0.1910562785 -0.2424556196 3.4803640566" Properties=species:S:1:pos:R:3:force:R:3:Z:I:1 config_type=hcp energy=-6920.9242565629 pbc="T T T"
Fe 0.1271969935 1.5868782138 0.9340533098 -1.3444967780 0.4428950859 0.1059876045 26
Fe 1.2820581871 0.7997746716 2.8224886394 1.3444967780 -0.4428950859 -0.1059876045 26
2
Lattice="2.8033647205 -0.3402074068 0.0113890071 -1.1163570907 2.4471087821 -0.3122728521 0.2694278194 0.1589208448 3.9940200455" Properties=species:S:1:pos:R:3:force:R:3:Z:I:1 config_type=hcp energy=-6921.2592808346 pbc="T T T"
Fe 0.2574429579 1.5578272582 0.7941091853 -0.1341203708 -0.2096239341 0.0304521594 26
Fe 1.6989919264 0.7079966564 2.8990278624 0.1341203708 0.2096239341 -0.0304521594 26
2
Lattice="2.6242689116 0.0374684290 -0.1086253467 -1.2841473990 2.2607431942 -0.1697899829 -0.1117932467 0.3194377957 4.4368882235" Properties=species:S:1:pos:R:3:force:R:3:Z:I:1 config_type=hcp energy=-6921.3686682934 pbc="T T T"
Fe -0.0094201682 1.5995859181 0.9598193218 -0.0714139649 0.0316387241 0.0046930367 26
Fe 1.2377484340 1.0180645516 3.1986559361 0.0714139649 -0.0316387241 -0.0046930367 26
2
Lattice="2.5833930628 -0.1966324437 0.2672251945 -1.3724472620 2.0988001226 -0.0453384500 0.2223946434 0.1353850345 3.9431011763" Properties=species:S:1:pos:R:3:force:R:3:Z:I:1 config_type=hcp energy=-6921.0288550899 pbc="T T T"
Fe 0.0016325696 1.3675787245 1.0446148714 0.6901229632 -0.2362286931 -0.3344104249 26
Fe 1.4317065723 0.6699747701 3.1203735702 -0.6901229632 0.2362286931 0.3344104249 26
2
Lattice="2.7748928821 0.1770497971 -0.3528971758 -1.2050137897 1.9673133958 -0.2586376666 -0.1600253469 0.3429723194 4.3777081474" Properties=species:S:1:pos:R:3:force:R:3:Z:I:1 config_type=hcp energy=-6921.2533627663 pbc="T T T"
Fe 0.0814833236 1.4563629512 0.8043730373 -0.2256961643 -0.2962482950 -0.1453733230 26
Fe 1.3283704218 1.0309756442 2.9617997069 0.2256961643 0.2962482950 0.1453733230 26
2
Lattice="2.3021980811 0.0520360795 0.3076466507 -1.2385367532 2.4022277908 0.2299596044 -0.0137745296 0.2541562188 4.3014471163" Properties=species:S:1:pos:R:3:force:R:3:Z:I:1 config_type=hcp energy=-6921.2408979106 pbc="T T T"
Fe -0.0618529584 1.6824483278 1.3312152457 0.3183698193 0.3894225440 -0.3852686679 26
Fe 1.1117411506 1.0259724583 3.5078402167 -0.3183698193 -0.3894225440 0.3852686679 26
2
Lattice="2.3074087198 -0.1173841298 -0.3398806033 -1.1035383256 2.0882937013 -0.3358499463 -0.2199276886 -0.0921983613 4.3530675972" Properties=species:S:1:pos:R:3:force:R:3:Z:I:1 config_type=hcp energy=-6921.0202628226 pbc="T T T"
Fe -0.0216508869 1.3300913776 0.7510727779 0.7041732770 -0.1995354350 0.1427613381 26
Fe 1.0055949936 0.5486202995 2.9262624014 -0.7041732770 0.1995354350 -0.1427613381 26
2
Lattice="2.7214549463 0.0901495622 0.0772920674 -1.4020199170 2.1401953905 0.0576380790 0.2791492880 0.2648153605 3.8122635596" Properties=species:S:1:pos:R:3:force:R:3:Z:I:1 config_type=hcp energy=-6921.2390072635 pbc="T T T"
Fe 0.0421216433 1.5231181775 1.0172558432 0.2356617646 -0.3457320256 0.0638333209 26
Fe 1.5564640359 0.9720413185 2.9299400421 -0.2356617646 0.3457320256 -0.0638333209 26
2
Lattice="2.7568809587 -0.0227082238 0.2946717827 -1.3385901806 2.2840785485 0.2856855369 -0.3691569750 -0.1812859336 4.3224674243" Properties=species:S:1:pos:R:3:force:R:3:Z:I:1 config_type=hcp energy=-6921.2615152975 pbc="T T T"
Fe -0.0658585625 1.4699055448 1.3692981318 -0.0634191160 -0.2187876070 0.0450634881 26
Fe 1.1149923656 0.6101805097 3.5335274441 0.0634191160 0.2187876070 -0.0450634881 26
2
Lattice="2.5781982035 0.3658056593 -0.1952648695 -1.1480297909 2.4330839413 0.1504988261 0.0120408461 -0.2970754335 4.1815787972" Properties=species:S:1:pos:R:3:force:R:3:Z:I:1 config_type=hcp energy=-6921.1512978914 pbc="T T T"
Fe 0.0969323369 1.6697911744 1.0806498843 -0.4666284356 0.3386465764 0.0016074544 26
Fe 1.3452763994 0.8320224705 3.0561610416 0.4666284356 -0.3386465764 -0.0016074544 26
2
Lattice="2.6293658573 -0.1572366415 0.1690483279 -1.0579153426 1.9514885554 0.0040252115 -0.3191583653 -0.1115788646 4.1996206863" Properties=species:S:1:pos:R:3:force:R:3:Z:I:1 config_type=hcp energy=-6921.1961906919 pbc="T T T"
Fe 0.0912656674 1.2207558704 1.1089333815 -0.1891183488 -0.5734629619 -0.0160462620 26
Fe 1.1610264818 0.4619177066 3.2637624280 0.1891183488 0.5734629619 0.0160462620 26
2
Lattice="2.8213122976 0.2287332391 -0.0811999459 -1.2488509209 2.1253544280 0.2533523265 0.0632807390 -0.3667830583 4.0480643736" Properties=species:S:1:pos:R:3:force:R:3:Z:I:1 config_type=hcp energy=-6921.3141272879 pbc="T T T"
Fe 0.1235538943 1.4015158808 1.1538618507 -0.5940032571 -0.3358615562 -0.0249703079 26
Fe 1.5121870887 0.5857904270 3.0663554698 0.5940032571 0.3358615562 0.0249703079 26
2
Lattice="2.3483165899 0.2785486935 0.0359700712 -1.1947153242 2.2498216469 -0.1886507135 0.1105567065 -0.2766069861 4.0425970537" Properties=species:S:1:pos:R:3:force:R:3:Z:I:1 config_type=hcp energy=-6921.3147489320 pbc="T T T"
Fe 0.0138159224 1.5236448220 0.8968649708 -0.4851272740 0.5146098700 0.3188940675 26
Fe 1.2503411036 0.7281180593 2.9930519136 0.4851272740 -0.5146098700 -0.3188940675 26
2
Lattice="2.1574636950 -0.0727550767 -0.1215993542 -1.3856242204 2.3762759397 -0.0680049161 -0.2711591440 -0.0223994827 4.4798187177" Properties=species:S:1:pos:R:3:force:R:3:Z:I:1 config_type=hcp energy=-6921.0151027275 pbc="T T T"
Fe -0.2725033291 1.5544136202 1.0340870406 0.4192535247 0.4645844077 0.1669104353 26
Fe 0.7731827949 0.7267068951 3.2561274067 -0.4192535247 -0.4645844077 -0.1669104353 26
2
Lattice="2.6554404598 0.1042286743 -0.1599024940 -1.3457559171 2.4436339496 0.0180849395 0.1479727701 0.1814563981 4.3743723033" Properties=species:S:1:pos:R:3:force:R:3:Z:I:1 config_type=hcp energy=-6921.0704124547 pbc="T T T"
Fe 0.0248357096 1.7092743845 1.0523549941 -0.0877646456 0.2211563654 0.0106991364 26
Fe 1.4328210706 1.0200449037 3.1801992223 0.0877646456 -0.2211563654 -0.0106991364 26
2
Lattice="2.8279594267 -0.1762277205 -0.2084031725 -1.4004518180 2.2997223177 0.3451083577 -0.1273778555 -0.2653558533 3.7146495378" Properties=species:S:1:pos:R:3:force:R:3:Z:I:1 config_type=hcp energy=-6921.1699741541 pbc="T T T"
Fe -0.0229657437 1.4081497771 1.0892855079 0.1210193087 -0.3125565525 0.0254840146 26
Fe 1.3230983380 0.4499906714 2.7620700674 -0.1210193087 0.3125565525 -0.0254840146 26
2
Lattice="2.4088887330 0.0327447104 0.1134042153 -1.0964473575 1.9287181952 -0.0482090313 0.0016327737 0.0912882107 4.3050286304" Properties=species:S:1:pos:R:3:force:R:3:Z:I:1 config_type=hcp energy=-6921.0682328226 pbc="T T T"
Fe 0.0722887056 1.3196123151 1.0819135006 -0.0984658389 -0.1121826803 0.0248450952 26
Fe 1.2417837553 0.7331383189 3.2883100727 0.0984658389 0.1121826803 -0.0248450952 26
2
Lattice="2.6486989981 0.2014492912 0.3192795353 -1.2326331509 2.1658922414 0.0972184460 0.2529386545 -0.0105333137 3.5645167188" Properties=species:S:1:pos:R:3:force:R:3:Z:I:1 config_type=hcp energy=-6920.7948011150 pbc="T T T"
Fe 0.1242486896 1.5085093871 1.0623597395 0.1098735716 0.3603590380 0.5464470833 26
Fe 1.5447544742 0.8482972264 2.9186528203 -0.1098735716 -0.3603590380 -0.5464470833 26
2
Lattice="2.2351279016 0.1702299079 0.3488467660 -1.3930073210 2.2167932163 -0.3325379251 0.0502105406 0.0222343789 4.2171477639" Properties=species:S:1:pos:R:3:force:R:3:Z:I:1 config_type=hcp energy=-6921.3197174590 pbc="T T T"
Fe -0.1711981390 1.5402326662 0.9488542201 0.0012449287 0.6335293578 -0.0245874705 26
Fe 1.0635269917 0.8690259712 3.2846012504 -0.0012449287 -0.6335293578 0.0245874705 26
2
Lattice="2.4266441515 -0.1955321768 -0.2740042447 -1.1905235036 2.4106562424 -0.1094311863 -0.3086161324 0.2767726077 4.0669899020" Properties=species:S:1:pos:R:3:force:R:3:Z:I:1 config_type=hcp energy=-6921.4064153839 pbc="T T T"
Fe -0.0620755190 1.6112081169 0.8524642377 0.3249497895 0.5730659834 0.1138778094 26
Fe 0.9895790545 0.8806917413 2.8310909681 -0.3249497895 -0.5730659834 -0.1138778094 26
2
Lattice="2.7429333919 -0.3147720674 0.2275243777 -1.2531265936 1.9645135714 0.1479504068 -0.2584464172 0.3658590886 4.0272590546" Properties=species:S:1:pos:R:3:force:R:3:Z:I:1 config_type=hcp energy=-6920.8797047211 pbc="T T T"
Fe 0.0141490077 1.2962919545 1.1812878421 -0.0374373356 -1.2847905937 0.9102994808 26
Fe 1.2172116503 0.7193075299 3.2214465512 0.0374373356 1.2847905937 -0.9102994808 26
2
Lattice="2.5586957125 -0.1934750425 0.2377141812 -1.2913411545 2.2336448592 -0.1537379004 0.1924133238 0.1284782722 3.9996155103" Properties=species:S:1:pos:R:3:force:R:3:Z:I:1 config_type=hcp energy=-6921.3128874011 pbc="T T T"
Fe 0.0399793789 1.4568058928 0.9766369046 0.3769843127 -0.1591300166 -0.1553114125 26
Fe 1.4197882452 0.7118437422 3.1069556595 -0.3769843127 0.1591300166 0.1553114125 26
2
Lattice="2.6272468492 0.1115731357 -0.1985658465 -1.1827532971 2.2945606474 -0.0350576299 -0.1147191980 0.0859589669 4.1973877488" Properties=species:S:1:pos:R:3:force:R:3:Z:I:1 config_type=hcp energy=-6921.3799939444 pbc="T T T"
Fe 0.0584402833 1.5884595265 0.9597926776 -0.3290082776 0.1299850066 0.0043017146 26
Fe 1.2713343343 0.9036305864 3.0039729131 0.3290082776 -0.1299850066 -0.0043017146 26
2
Lattice="2.6801913484 -0.0150500695 -0.0752262159 -1.2166853722 2.3328224447 -0.1992116541 0.0950489781 -0.1441192297 3.5807287344" Properties=species:S:1:pos:R:3:force:R:3:Z:I:1 config_type=hcp energy=-6921.0777716380 pbc="T T T"
Fe 0.1059063176 1.5142466701 0.7372944059 -0.2504479284 -0.3192239402 0.0228056952 26
Fe 1.4526489047 0.6594070116 2.5689956539 0.2504479284 0.3192239402 -0.0228056952 26
2
Lattice="2.2250704173 0.0910268233 0.0721704076 -1.2220686358 2.1933400362 0.1234256346 -0.0569769894 0.0294332093 4.1800727568" Properties=species:S:1:pos:R:3:force:R:3:Z:I:1 config_type=hcp energy=-6921.1830207892 pbc="T T T"
Fe -0.0873820962 1.4999974527 1.1513603078 0.0296070375 0.4329739657 -0.0672042958 26
Fe 1.0334062199 0.8138032845 3.2243080456 -0.0296070375 -0.4329739657 0.0672042958 26
2
Lattice="2.5950039582 -0.1772369632 0.0301507813 -1.1338212920 2.0858066576 -0.0688361770 0.2395180571 0.1591870735 4.0726601727" Properties=species:S:1:pos:R:3:force:R:3:Z:I:1 config_type=hcp energy=-6921.3279972035 pbc="T T T"
Fe 0.1688755905 1.3713314647 0.9823210940 -0.0730725843 -0.4396269552 0.0512156265 26
Fe 1.5318246126 0.6964258233 3.0516547236 0.0730725843 0.4396269552 -0.0512156265 26
2
Lattice="2.4000264565 0.1475989370 -0.2333133910 -1.2707795936 2.3193490553 0.2017720181 -0.1524040680 -0.0139177274 3.8402056420" Properties=species:S:1:pos:R:3:force:R:3:Z:I:1 config_type=hcp energy=-6921.2471778904 pbc="T T T"
Fe -0.0854016011 1.5920247084 1.0168094540 -0.2219935170 0.8280375126 -0.1088258466 26
Fe 1.0622429463 0.8610048316 2.7918550566 0.2219935170 -0.8280375126 0.1088258466 26
2
Lattice="2.5514077332 -0.0548992116 0.0825645741 -1.1518110454 2.2753286084 0.1906216244 -0.1773698264 -0.1940737305 4.1680428282" Properties=species:S:1:pos:R:3:force:R:3:Z:I:1 config_type=hcp energy=-6921.4419454267 pbc="T T T"
Fe 0.0381296868 1.4501457861 1.1966171872 -0.1541590435 0.1046429170 0.0105320146 26
Fe 1.1840976851 0.5762106459 3.2446113288 0.1541590435 -0.1046429170 -0.0105320146 26
2
Lattice="2.2499687513 -0.1025485248 -0.0548756381 -1.2804293027 2.1205062234 -0.1784826918 -0.1955804961 -0.1684952671 4.2583107656" Properties=species:S:1:pos:R:3:force:R:3:Z:I:1 config_type=hcp energy=-6920.9426347248 pbc="T T T"
Fe -0.1526440323 1.3374385053 0.9272941966 0.4059676003 0.1306668634 0.1558498017 26
Fe 0.9266000559 0.5120252779 3.0976602667 -0.4059676003 -0.1306668634 -0.1558498017 26
2
Lattice="2.2783881036 0.1679409390 0.2250170297 -1.3289525980 2.2616920328 -0.2103365165 0.0662080815 -0.0795548374 4.0361012169" Properties=species:S:1:pos:R:3:force:R:3:Z:I:1 config_type=hcp energy=-6921.2784628209 pbc="T T T"
Fe -0.1100744651 1.5439558879 0.9437921740 -0.0708123265 0.7069804087 0.1298502807 26
Fe 1.1257171340 0.8061227057 3.1069895561 0.0708123265 -0.7069804087 -0.1298502807 26
2
Lattice="2.4603180380 -0.0205392894 -0.2017911124 -1.1297078223 2.2130343743 -0.0940659956 -0.2351106785 -0.1375465851 4.2336634990" Properties=species:S:1:pos:R:3:force:R:3:Z:I:1 config_type=hcp energy=-6921.4516925451 pbc="T T T"
Fe 0.0080698176 1.4341980974 0.9284454978 0.0747054926 0.1490194060 -0.0244866832 26
Fe 1.0874287319 0.6207518835 3.0093606462 -0.0747054926 -0.1490194060 0.0244866832 26
2
Lattice="2.6485217649 -0.0692108440 0.1813312428 -1.2466768594 1.9406522026 0.0279796428 -0.1302689257 -0.2247798891 4.1435365443" Properties=species:S:1:pos:R:3:force:R:3:Z:I:1 config_type=hcp energy=-6921.3046241195 pbc="T T T"
Fe 0.0190251480 1.2145698474 1.1149765529 -0.0593536859 -0.6266213148 -0.0270055941 26
Fe 1.2525503006 0.4320913564 3.2378719394 0.0593536859 0.6266213148 0.0270055941 26
2
Lattice="2.5836526729 0.2435427131 -0.1279747025 -1.2266619733 2.1070330383 0.1608141118 0.0535345509 -0.0510739986 3.9450006547" Properties=species:S:1:pos:R:3:force:R:3:Z:I:1 config_type=hcp energy=-6921.3199935185 pbc="T T T"
Fe 0.0567005308 1.4731638449 1.0508101714 -0.6482160199 -0.1549180335 0.0161385646 26
Fe 1.3538270580 0.8263389472 2.9270280737 0.6482160199 0.1549180335 -0.0161385646 26
2
Lattice="2.6420899106 0.2295635546 0.0661811773 -1.3541501347 2.3241141182 0.0690117908 0.2028120016 -0.1270353892 3.7234957065" Properties=species:S:1:pos:R:3:force:R:3:Z:I:1 config_type=hcp energy=-6921.1984440667 pbc="T T T"
Fe 0.0284997950 1.5942418739 0.9989423565 -0.3210980181 0.3027740148 -0.0111886746 26
Fe 1.4622525130 0.8324004096 2.8597465835 0.3210980181 -0.3027740148 0.0111886746 26
2
Lattice="2.6662137869 -0.1407453002 0.1893395403 -1.3187494435 2.2850213494 0.1667005933 -0.1918769867 0.0763482293 4.0483779776" Properties=species:S:1:pos:R:3:force:R:3:Z:I:1 config_type=hcp energy=-6921.3966298973 pbc="T T T"
Fe -0.0385309096 1.4955992871 1.1863402435 0.2084543388 -0.3320270112 0.0945780720 26
Fe 1.1941177309 0.7250223147 3.2180759941 -0.2084543388 0.3320270112 -0.0945780720 26
2
Lattice="2.4742116380 0.0395792306 -0.2431469649 -1.1543469854 2.2364527993 0.0221094684 0.1152019672 0.1417124433 4.2461169550" Properties=species:S:1:pos:R:3:force:R:3:Z:I:1 config_type=hcp energy=-6921.4797510216 pbc="T T T"
Fe 0.0838518748 1.5396629049 0.9952279355 -0.2145172599 0.2094074471 0.0068244822 26
Fe 1.3512142478 0.8780813197 3.0298497824 0.2145172599 -0.2094074471 -0.0068244822 26
2
Lattice="2.6946376419 0.0830286849 -0.0210773211 -1.2444354504 2.0904642388 0.1985441593 0.0698479452 0.1726571757 4.2215032644" Properties=species:S:1:pos:R:3:force:R:3:Z:I:1 config_type=hcp energy=-6921.4615517745 pbc="T T T"
Fe 0.0859206832 1.4645497595 1.1807209032 -0.2570163285 -0.3856463631 0.0963140817 26
Fe 1.4341318798 0.8815992615 3.2182505473 0.2570163285 0.3856463631 -0.0963140817 26
2
Lattice="2.3833311012 0.0045528044 0.1162062776 -1.1262177932 2.2450933541 -0.1721475502 0.0574731910 0.2048738151 4.1312620247" Properties=species:S:1:pos:R:3:force:R:3:Z:I:1 config_type=hcp energy=-6921.4074197561 pbc="T T T"
Fe 0.0578828957 1.5495405597 0.9567759164 -0.1145869200 0.3584633628 -0.0118800446 26
Fe 1.2567028874 0.9049813229 3.1185436426 0.1145869200 -0.3584633628 0.0118800446 26
2
Lattice="2.5363967651 -0.1594149137 -0.2149464143 -1.2615594951 2.3425504336 -0.1600397802 0.0286494900 0.0189245273 3.8527659764" Properties=species:S:1:pos:R:3:force:R:3:Z:I:1 config_type=hcp energy=-6921.2631273001 pbc="T T T"
Fe 0.0114613263 1.5133763468 0.7848509052 0.4043778865 0.0203762588 0.0470668926 26
Fe 1.2920251787 0.6886834453 2.6929281114 -0.4043778865 -0.0203762588 -0.0470668926 26
2
Lattice="2.7041847664 -0.0946230723 0.1001711372 -1.1850384980 2.2165994883 -0.2383637127 0.1779009071 -0.0032275711 4.1192337414" Properties=species:S:1:pos:R:3:force:R:3:Z:I:1 config_type=hcp energy=-6921.4303612675 pbc="T T T"
Fe 0.1557151460 1.4454631471 0.9042771720 -0.2420794981 -0.3037875441 0.0454499251 26
Fe 1.5413325710 0.6732873222 3.0767610153 0.2420794981 0.3037875441 -0.0454499251 26
2
Lattice="2.5123328833 0.2092170698 -0.0916090948 -1.2882765469 2.2782269185 -0.0737282427 -0.0077295331 -0.2148351084 3.9209242555" Properties=species:S:1:pos:R:3:force:R:3:Z:I:1 config_type=hcp energy=-6921.2996108298 pbc="T T T"
Fe -0.0234655911 1.5349170193 0.9005440927 -0.2619369080 0.3438363504 0.0706976552 26
Fe 1.2397923944 0.7376923651 2.8550448432 0.2619369080 -0.3438363504 -0.0706976552 26
2
Lattice="2.4839279578 -0.0280408247 0.1372336025 -1.3368042132 2.0957027266 -0.0458589763 0.1307228370 -0.0341709456 4.1923458694" Properties=species:S:1:pos:R:3:force:R:3:Z:I:1 config_type=hcp energy=-6921.3777364878 pbc="T T T"
Fe -0.0306739903 1.3793165018 1.0632522968 0.2135039876 -0.0813970487 -0.0129568231 26
Fe 1.3085190792 0.6541747031 3.2204679500 -0.2135039876 0.0813970487 0.0129568231 26
2
Lattice="2.6719494451 0.1599899693 -0.1758677170 -1.1375457963 1.9452883203 -0.1429533794 -0.0530867759 -0.2457738000 3.9937538344" Properties=species:S:1:pos:R:3:force:R:3:Z:I:1 config_type=hcp energy=-6921.0842716217 pbc="T T T"
Fe 0.1188862118 1.2888039433 0.8445156451 -0.4834005203 -0.6494709759 -0.5614304508 26
Fe 1.3624277101 0.5706981320 2.8304192388 0.4834005203 0.6494709759 0.5614304508 26
2
Lattice="2.3607189131 0.2356345782 0.2117443265 -1.2388607997 2.2034576989 0.2242515759 -0.0657017649 -0.1471120254 4.0849305411" Properties=species:S:1:pos:R:3:force:R:3:Z:I:1 config_type=hcp energy=-6921.3712535111 pbc="T T T"
Fe -0.0555466216 1.5108040349 1.2413153265 -0.3366208033 0.4915637765 -0.0887504070 26
Fe 1.1117027318 0.7811759786 3.2796111170 0.3366208033 -0.4915637765 0.0887504070 26
2
Lattice="2.3021772212 -0.0766686689 -0.2188626144 -1.2188340044 2.2646955321 0.0801394099 0.2356309211 -0.0663906479 4.2824247029" Properties=species:S:1:pos:R:3:force:R:3:Z:I:1 config_type=hcp energy=-6921.4087386920 pbc="T T T"
Fe 0.0136265919 1.4677215366 1.0510875381 0.2440685043 0.2948457576 0.0128385523 26
Fe 1.3053466204 0.6539156041 3.0926125720 -0.2440685043 -0.2948457576 -0.0128385523 26
2
Lattice="2.3655147801 -0.1437650844 -0.0346110346 -1.1398817058 2.3282207563 0.1077438213 -0.0255950532 -0.1842232341 4.1441683364" Properties=species:S:1:pos:R:3:force:R:3:Z:I:1 config_type=hcp energy=-6921.4033458035 pbc="T T T"
Fe 0.0220671120 1.4582513185 1.0963397776 0.2013665755 0.3590490604 0.0116087931 26
Fe 1.1779685387 0.5419801711 3.1209627676 -0.2013665755 -0.3590490604 -0.0116087931 26
2
Lattice="2.6671481673 -0.1923700033 0.0757843113 -1.2384230272 2.0659270343 -0.0187260467 -0.1018456181 -0.2087231925 4.2482632009" Properties=species:S:1:pos:R:3:force:R:3:Z:I:1 config_type=hcp energy=-6921.4545947755 pbc="T T T"
Fe 0.0378429329 1.2610563974 1.0748395055 0.0138811351 -0.5381958954 -0.0469933590 26
Fe 1.2890363215 0.4037793135 3.2304806223 -0.0138811351 0.5381958954 0.0469933590 26
2
Lattice="2.5171109346 -0.1777975565 0.1610183341 -1.1406710626 2.1600315834 -0.1961469865 -0.0834460366 -0.2394250413 4.2240251278" Properties=species:S:1:pos:R:3:force:R:3:Z:I:1 config_type=hcp energy=-6921.4357121145 pbc="T T T"
Fe 0.0576066409 1.3209763999 0.9789025182 -0.0092243509 -0.2483959300 -0.0413816668 26
Fe 1.2353877000 0.4218318270 3.2099944628 0.0092243509 0.2483959300 0.0413816668 26
2
Lattice="2.6994453304 0.0034663112 -0.1538966496 -1.3172848053 2.3147523751 -0.1082559833 0.2215897612 -0.0354634466 4.0325123969" Properties=species:S:1:pos:R:3:force:R:3:Z:I:1 config_type=hcp energy=-6921.3288180349 pbc="T T T"
Fe 0.0768882997 1.5355350649 0.8846594166 -0.0804405979 -0.0992245717 -0.0177717301 26
Fe 1.5268606345 0.7472204451 2.8856989953 0.0804405979 0.0992245717 0.0177717301 26
2
Lattice="2.3200260788 0.2139189232 0.1777034192 -1.2322477701 2.3484442322 -0.1371394377 -0.2057991170 0.0457349544 4.2116885684" Properties=species:S:1:pos:R:3:force:R:3:Z:I:1 config_type=hcp energy=-6921.3941561102 pbc="T T T"
Fe -0.0997245390 1.6484402956 1.0207201590 -0.2567414775 0.5640280375 -0.0137446094 26
Fe 0.9817034971 0.9596573470 3.2315330919 0.2567414775 -0.5640280375 0.0137446094 26
2
Lattice="2.6897472888 -0.0535360137 0.2291372709 -1.1276151152 2.0275482707 0.0703598438 0.0213301648 0.1432496071 3.9153407614" Properties=species:S:1:pos:R:3:force:R:3:Z:I:1 config_type=hcp energy=-6921.1399438046 pbc="T T T"
Fe 0.1500450196 1.3697359766 1.1021153081 -0.2652757440 -0.6143892860 0.4366933252 26
Fe 1.4334192088 0.7475272375 3.1127220280 0.2652757440 0.6143892860 -0.4366933252 26
2
Lattice="2.5113576033 0.1354374561 -0.2054032554 -1.3310156185 2.0734701620 0.2340436356 -0.1604315500 0.0702358011 4.1075907128" Properties=species:S:1:pos:R:3:force:R:3:Z:I:1 config_type=hcp energy=-6921.3842405533 pbc="T T T"
Fe -0.0904607039 1.4450830612 1.1144734000 -0.1674089725 -0.0390923555 0.0415498170 26
Fe 1.1103706340 0.8340603580 3.0217566835 0.1674089725 0.0390923555 -0.0415498170 26
2
Lattice="2.4791027827 -0.0700329175 0.0041715194 -1.2861002910 2.3085615425 0.1405395332 0.0397286389 0.1739513706 3.9885827342" Properties=species:S:1:pos:R:3:force:R:3:Z:I:1 config_type=hcp energy=-6921.3287690544 pbc="T T T"
Fe -0.0212256435 1.5592636388 1.0922342550 0.2251719161 0.2324041754 -0.0581599221 26
Fe 1.2539570221 0.8532156127 3.0410602759 -0.2251719161 -0.2324041754 0.0581599221 26
2
Lattice="2.6613142071 0.2347902458 -0.0584617317 -1.1716049570 2.1395465252 0.0405493585 -0.1479461010 0.1009351404 4.1809745057" Properties=species:S:1:pos:R:3:force:R:3:Z:I:1 config_type=hcp energy=-6921.4114973823 pbc="T T T"
Fe 0.0689202808 1.5299256410 1.0527921832 -0.5793749591 -0.0801924863 -0.0330955118 26
Fe 1.2728423337 0.9453473394 3.1102699493 0.5793749591 0.0801924863 0.0330955118 26
2
Lattice="2.3558674313 0.1552881511 0.0789362536 -1.3203626868 1.9872257957 -0.0835143909 -0.2261240781 0.0147950847 4.2848672574" Properties=species:S:1:pos:R:3:force:R:3:Z:I:1 config_type=hcp energy=-6921.3374164247 pbc="T T T"
Fe -0.1516050892 1.3803393571 1.0418472836 0.0061950758 0.0220086529 -0.0050686750 26
Fe 0.9609881178 0.7769684933 3.2384423088 -0.0061950758 -0.0220086529 0.0050686750 26
2
Lattice="2.5783027938 0.0510273038 0.1275695504 -1.2521376887 2.2671738591 0.1187857176 -0.0583006891 -0.1157906424 3.8381708751" Properties=species:S:1:pos:R:3:force:R:3:Z:I:1 config_type=hcp energy=-6921.2602835742 pbc="T T T"
Fe 0.0099736006 1.4995848684 1.0812559934 -0.0963269372 0.0808437470 -0.0013557433 26
Fe 1.2578926226 0.7028256520 3.0032701499 0.0963269372 -0.0808437470 0.0013557433 26
2
Lattice="2.5885437307 -0.1516606308 0.1203088850 -1.3256456752 2.0105377745 0.0326600153 0.1013441678 -0.0178667052 4.1995037906" Properties=species:S:1:pos:R:3:force:R:3:Z:I:1 config_type=hcp energy=-6921.2545882311 pbc="T T T"
Fe 0.0042908127 1.2854104156 1.1117487918 0.1802228421 -0.4690231621 0.0362284024 26
Fe 1.3599534872 0.5556005419 3.2407228608 -0.1802228421 0.4690231621 -0.0362284024 26
2
Lattice="2.6435978414 0.0370676797 -0.0655031601 -1.1322885567 2.0570922570 0.1484426225 -0.2096243935 -0.1992176213 4.0078053508" Properties=species:S:1:pos:R:3:force:R:3:Z:I:1 config_type=hcp energy=-6921.3209759856 pbc="T T T"
Fe 0.0738079494 1.3340141176 1.0790852228 -0.4953399574 -0.3965468170 -0.1736243600 26
Fe 1.2278766772 0.5609289912 3.0116585325 0.4953399574 0.3965468170 0.1736243600 26
2
Lattice="2.4650313382 0.1126434434 0.0397434439 -1.2460102761 2.3320719465 -0.2222192577 -0.1644377591 -0.1630483180 3.9032040289" Properties=species:S:1:pos:R:3:force:R:3:Z:I:1 config_type=hcp energy=-6921.2563947950 pbc="T T T"
Fe -0.0502301455 1.5515737867 0.8408949172 -0.1774830734 0.4624372785 0.2094449853 26
Fe 1.1048119677 0.7300927916 2.8798360126 0.1774830734 -0.4624372785 -0.2094449853 26
2
Lattice="2.4327601410 -0.1703695155 -0.2390618024 -1.3248596317 2.0435887961 -0.1287248319 0.0356681385 -0.0821131713 4.1688374382" Properties=species:S:1:pos:R:3:force:R:3:Z:I:1 config_type=hcp energy=-6920.9959208773 pbc="T T T"
Fe -0.0635278070 1.2851478299 0.8767081920 0.4511907540 -0.2712574182 -0.0275594100 26
Fe 1.2070974350 0.5059575441 2.9243401613 -0.4511907540 0.2712574182 0.0275594100 26
2
Lattice="2.6855209548 0.1523002171 0.0205482498 -1.2035480347 2.2505592384 0.0189154723 -0.0650985986 0.2447256479 3.5494727794" Properties=species:S:1:pos:R:3:force:R:3:Z:I:1 config_type=hcp energy=-6921.0855644347 pbc="T T T"
Fe 0.0764043054 1.6123909592 0.9068279711 -0.6126735881 -0.0917431724 0.0048609298 26
Fe 1.3404705539 1.0351938753 2.6821098754 0.6126735881 0.0917431724 -0.0048609298 26
2
Lattice="2.6151939895 -0.2180259149 0.1439471450 -1.1767974778 2.3184399984 0.2398873783 0.0830199455 -0.0488164007 4.2727202649" Properties=species:S:1:pos:R:3:force:R:3:Z:I:1 config_type=hcp energy=-6921.4770277061 pbc="T T T"
Fe 0.1078286853 1.4608319764 1.2760913091 0.1888995478 -0.1567864550 0.0031431750 26
Fe 1.4135890859 0.5907670203 3.3804650561 -0.1888995478 0.1567864550 -0.0031431750 26
2
Lattice="2.5562704471 0.0860791275 -0.1671728785 -1.2820645718 2.1496764581 0.0644997518 -0.2220632849 -0.2301680463 4.0812266691" Properties=species:S:1:pos:R:3:force:R:3:Z:I:1 config_type=hcp energy=-6921.4027168123 pbc="T T T"
Fe -0.0582638018 1.4043367647 1.0075897276 -0.0052350255 0.0415310479 -0.0123261312 26
Fe 1.1104058795 0.6012500057 2.9709643274 0.0052350255 -0.0415310479 0.0123261312 26
2
Lattice="2.5902312766 0.2064881586 -0.2229524434 -1.2332878545 2.0187461205 -0.1853112234 0.1599171570 0.1259792927 4.1563517022" Properties=species:S:1:pos:R:3:force:R:3:Z:I:1 config_type=hcp energy=-6921.4263398328 pbc="T T T"
Fe 0.0810711500 1.4462156793 0.8412315848 -0.4160666409 -0.2372208822 -0.0617550973 26
Fe 1.4357917763 0.9049997182 2.9068582762 0.4160666409 0.2372208822 0.0617550973 26
2
Lattice="2.4117052313 0.1279646661 0.1331190505 -1.1354545132 2.1835650692 0.1818619661 0.2053433191 0.2209370853 4.2604360756" Properties=species:S:1:pos:R:3:force:R:3:Z:I:1 config_type=hcp energy=-6921.4378871205 pbc="T T T"
Fe 0.0981497817 1.5536671331 1.2307245155 -0.0973265825 0.1546683793 -0.0250538688 26
Fe 1.3834442554 0.9787982363 3.3446923348 0.0973265825 -0.1546683793 0.0250538688 26
2
Lattice="2.2201544262 -0.0615195361 -0.1722707403 -1.3388563295 2.3379540015 0.0069503531 -0.0977883501 0.0549345220 4.0688013381" Properties=species:S:1:pos:R:3:force:R:3:Z:I:1 config_type=hcp energy=-6921.1500997741 pbc="T T T"
Fe -0.1770851965 1.5519421277 0.9644163007 0.4584633796 0.6640828188 0.1470687092 26
Fe 0.9605944976 0.7794250775 2.9390642046 -0.4584633796 -0.6640828188 -0.1470687092 26
2
Lattice="2.2523995359 0.2426851984 0.0960659615 -1.2939166926 2.0357471768 0.0964695715 0.2255929988 0.1902272471 4.2361037088" Properties=species:S:1:pos:R:3:force:R:3:Z:I:1 config_type=hcp energy=-6921.2136248908 pbc="T T T"
Fe -0.0555317355 1.4856769772 1.1553612644 -0.0294615130 0.2667150482 -0.0103232409 26
Fe 1.2396071242 0.9829835522 3.2732791112 0.0294615130 -0.2667150482 0.0103232409 26
2
Lattice="2.6774131890 0.1061911663 0.1754600514 -1.3469838986 2.2121521653 -0.0711351385 0.0578350614 -0.1715422617 3.8868501773" Properties=species:S:1:pos:R:3:force:R:3:Z:I:1 config_type=hcp energy=-6921.2968998955 pbc="T T T"
Fe 0.0088062997 1.4673505358 0.9827677466 -0.2391070444 -0.0878479494 0.0340049114 26
Fe 1.3794583205 0.6794513398 3.0084073435 0.2391070444 0.0878479494 -0.0340049114 26
2
Lattice="2.5634441173 0.1632575366 -0.0144231330 -1.1461086463 2.2981483727 -0.0236575343 0.1474781410 0.1569283113 4.1322854181" Properties=species:S:1:pos:R:3:force:R:3:Z:I:1 config_type=hcp energy=-6921.4017795161 pbc="T T T"
Fe 0.1271550089 1.6258225657 1.0124916114 -0.4203164192 0.2342371157 -0.0032277644 26
Fe 1.4376593736 0.9925147373 3.0817131392 0.4203164192 -0.2342371157 0.0032277644 26
2
Lattice="2.5652381496 -0.1188657445 0.0571493636 -1.2354424023 2.1335933653 0.0660316728 -0.0920775422 0.2009924289 4.0653158315" Properties=species:S:1:pos:R:3:force:R:3:Z:I:1 config_type=hcp energy=-6921.3654988472 pbc="T T T"
Fe 0.0083046252 1.4330969016 1.0793996469 0.0754588262 -0.3005286694 0.0559246041 26
Fe 1.2294135798 0.7826223776 3.1090956799 -0.0754588262 0.3005286694 -0.0559246041 26
2
Lattice="2.6204954752 0.1853697137 -0.0035806655 -1.2232504382 1.9675087094 0.2460650153 0.2304551000 0.0125021182 4.2628440283" Properties=species:S:1:pos:R:3:force:R:3:Z:I:1 config_type=hcp energy=-6921.4317885047 pbc="T T T"
Fe 0.1154836871 1.3766481978 1.2285704717 -0.2616204050 -0.3652220247 0.0984905215 26
Fe 1.5122172380 0.7887341825 3.2767607961 0.2616204050 0.3652220247 -0.0984905215 26
2
Lattice="2.4421259514 0.1414971459 0.1068819118 -1.3400823789 2.2397895379 -0.1270139380 0.1503535725 0.1034686249 4.1604881735" Properties=species:S:1:pos:R:3:force:R:3:Z:I:1 config_type=hcp energy=-6921.4518348607 pbc="T T T"
Fe -0.0418835273 1.5662968642 0.9910649818 -0.0484475756 0.4040109899 -0.0094912316 26
Fe 1.2942809172 0.9184606484 3.1492906756 0.0484475756 -0.4040109899 0.0094912316 26
2
Lattice="2.2222028830 0.2290327758 0.1305210232 -1.1816397680 2.0938010418 -0.0878554224 0.1570745750 0.0725198847 4.1358734553" Properties=species:S:1:pos:R:3:force:R:3:Z:I:1 config_type=hcp energy=-6921.1578056305 pbc="T T T"
Fe -0.0078705121 1.4904045846 1.0188971085 -0.2781207240 0.3940171074 0.0628922967 26
Fe 1.2055079783 0.9049509080 3.1596399336 0.2781207240 -0.3940171074 -0.0628922967 26
2