24
Lattice="2.8335851956 0 0 0 2.8335851956 0 0 0 34.0030223472" Properties=species:S:1:pos:R:3:force:R:3:Z:I:1 config_type=surface_sep_100 energy=-83062.4208749769 pbc="T T T"
Fe 0.0000000000 0.0000000000 0.0000000000 -0.0000352241 -0.0000064278 -0.0027102011 26
Fe 1.4167925978 1.4167925978 1.4167925978 -0.0000203117 0.0000362526 -0.0016642758 26
Fe 0.0000000000 0.0000000000 2.8335851956 -0.0000203117 -0.0000393379 -0.0003478704 26
Fe 1.4167925978 1.4167925978 4.2503777934 0.0000095131 0.0000388237 0.0008026988 26
Fe 0.0000000000 0.0000000000 5.6671703912 -0.0000107986 -0.0000287964 0.0013976523 26
Fe 1.4167925978 1.4167925978 7.0839629890 -0.0000578498 0.0000434517 0.0018712497 26
Fe 0.0000000000 0.0000000000 8.5007555868 0.0000632492 -0.0000141411 0.0026736914 26
Fe 1.4167925978 1.4167925978 9.9175481846 -0.0000586212 -0.0000002571 0.0022854546 26
Fe 0.0000000000 0.0000000000 11.3343407824 0.0000874175 -0.0000506508 0.0014796705 26
Fe 1.4167925978 1.4167925978 12.7511333802 -0.0000241684 -0.0000331672 -0.0002555678 26
Fe 0.0000000000 0.0000000000 14.1679259780 0.0000182548 0.0000624778 -0.0019866923 26
Fe 1.4167925978 1.4167925978 15.5847185758 -0.0000262253 -0.0000223686 -0.0024384353 26
Fe 0.0000000000 0.0000000000 17.0015111736 -0.0000084846 0.0000113129 -0.0021820962 26
Fe 1.4167925978 1.4167925978 18.4183037714 -0.0000231399 0.0000038567 -0.0002283141 26
Fe 0.0000000000 0.0000000000 19.8350963692 -0.0000071991 -0.0000295677 0.0023507607 26
Fe 1.4167925978 1.4167925978 21.2518889670 0.0000136269 0.0000606781 0.0042106975 26
Fe 0.0000000000 0.0000000000 22.6686815648 0.0000287964 -0.0000660774 0.0048269912 26
Fe 1.4167925978 1.4167925978 24.0854741626 0.0000231399 0.0000087418 0.0040695439 26
Fe 0.0000000000 0.0000000000 25.5022667604 -0.0000092560 0.0000254539 0.0022425172 26
Fe 1.4167925978 1.4167925978 26.9190593582 0.0000159408 0.0000048851 -0.0000539932 26
Fe 0.0000000000 0.0000000000 28.3358519560 0.0000221115 0.0000215973 -0.0031521739 26
Fe 1.4167925978 1.4167925978 29.7526445538 0.0000059135 0.0000105415 -0.0046894372 26
Fe 0.0000000000 0.0000000000 31.1694371516 0.0000187691 -0.0000267395 -0.0046760674 26
Fe 1.4167925978 1.4167925978 32.5862297494 -0.0000046280 -0.0000113129 -0.0038258032 26
24
Lattice="2.8335851956 0 0 0 2.8335851956 0 0 0 34.4030197341" Properties=species:S:1:pos:R:3:force:R:3:Z:I:1 config_type=surface_sep_100 energy=-83062.0265745103 pbc="T T T"
Fe 0.0000000000 0.0000000000 0.0000000000 0.0000000000 -0.0000059135 0.0052787343 26
Fe 1.4167925978 1.4167925978 1.4167925978 -0.0000023140 0.0000017998 0.0060480087 26
Fe 0.0000000000 0.0000000000 2.8335851956 -0.0000020569 0.0000005142 -0.0106112046 26
Fe 1.4167925978 1.4167925978 4.2503777934 0.0000025711 0.0000007713 -0.0052921040 26
Fe 0.0000000000 0.0000000000 5.6671703912 0.0000020569 -0.0000025711 0.0152024256 26
Fe 1.4167925978 1.4167925978 7.0839629890 -0.0000020569 0.0000033424 0.0176994821 26
Fe 0.0000000000 0.0000000000 8.5007555868 -0.0000025711 -0.0000028282 -0.0045007181 26
Fe 1.4167925978 1.4167925978 9.9175481846 0.0000046280 0.0000015427 0.0258182581 26
Fe 0.0000000000 0.0000000000 11.3343407824 -0.0000023140 0.0000030853 -0.0147787076 26
Fe 1.4167925978 1.4167925978 12.7511333802 -0.0000015427 -0.0000025711 0.0060523795 26
Fe 0.0000000000 0.0000000000 14.1679259780 0.0000010284 -0.0000023140 0.1055947398 26
Fe 1.4167925978 1.4167925978 15.5847185758 0.0000041138 0.0000033424 1.4916176805 26
Fe 0.0000000000 0.0000000000 17.4015091272 -0.0000012856 0.0000002571 -1.4925967571 26
Fe 1.4167925978 1.4167925978 18.8183017250 0.0000043709 0.0000056564 -0.1069003465 26
Fe 0.0000000000 0.0000000000 20.2350940395 0.0000005142 -0.0000015427 -0.0068548212 26
Fe 1.4167925978 1.4167925978 21.6518869206 -0.0000046280 -0.0000025711 0.0151466326 26
Fe 0.0000000000 0.0000000000 23.0686795184 -0.0000002571 -0.0000002571 -0.0245972407 26
Fe 1.4167925978 1.4167925978 24.4854718329 -0.0000005142 -0.0000017998 0.0063804525 26
Fe 0.0000000000 0.0000000000 25.9022647140 -0.0000023140 -0.0000030853 -0.0160439480 26
Fe 1.4167925978 1.4167925978 27.3190573118 0.0000000000 0.0000012856 -0.0150026508 26
Fe 0.0000000000 0.0000000000 28.7358496263 -0.0000002571 0.0000000000 0.0046485566 26
Fe 1.4167925978 1.4167925978 30.1526425074 0.0000015427 0.0000007713 0.0097313727 26
Fe 0.0000000000 0.0000000000 31.5694351052 -0.0000030853 -0.0000020569 -0.0067920863 26
Fe 1.4167925978 1.4167925978 32.9862274197 0.0000051422 0.0000048851 -0.0052476239 26
24
Lattice="2.8335851956 0 0 0 2.8335851956 0 0 0 34.8030171211" Properties=species:S:1:pos:R:3:force:R:3:Z:I:1 config_type=surface_sep_100 energy=-83061.3453518833 pbc="T T T"
Fe 0.0000000000 0.0000000000 0.0000000000 0.0000033424 0.0000030853 0.0046477853 26
Fe 1.4167925978 1.4167925978 1.4167925978 0.0000015427 0.0000015427 0.0047128342 26
Fe 0.0000000000 0.0000000000 2.8335851956 -0.0000087418 0.0000012856 -0.0051193258 26
Fe 1.4167925978 1.4167925978 4.2503777934 0.0000015427 0.0000092560 -0.0007764735 26
Fe 0.0000000000 0.0000000000 5.6671703912 -0.0000005142 -0.0000033424 0.0163635363 26
Fe 1.4167925978 1.4167925978 7.0839629890 -0.0000005142 0.0000023140 0.0120127136 26
Fe 0.0000000000 0.0000000000 8.5007555868 -0.0000020569 -0.0000012856 -0.0115051776 26
Fe 1.4167925978 1.4167925978 9.9175481846 0.0000020569 0.0000017998 0.0310545692 26
Fe 0.0000000000 0.0000000000 11.3343407824 -0.0000056564 -0.0000028282 -0.0928865425 26
Fe 1.4167925978 1.4167925978 12.7511333802 0.0000005142 0.0000025711 -0.0149594562 26
Fe 0.0000000000 0.0000000000 14.1679259780 0.0000015427 -0.0000051422 0.0200597558 26
Fe 1.4167925978 1.4167925978 15.5847185758 -0.0000082275 0.0000015427 1.7366452068 26
Fe 0.0000000000 0.0000000000 17.8015070809 0.0000069420 -0.0000023140 -1.7320907526 26
Fe 1.4167925978 1.4167925978 19.2182996787 0.0000061707 0.0000007713 -0.0158783689 26
Fe 0.0000000000 0.0000000000 20.6350919932 -0.0000074562 -0.0000095131 0.0167695136 26
Fe 1.4167925978 1.4167925978 22.0518848743 0.0000033424 -0.0000005142 0.0929672752 26
Fe 0.0000000000 0.0000000000 23.4686774721 -0.0000010284 0.0000005142 -0.0318464693 26
Fe 1.4167925978 1.4167925978 24.8854697866 -0.0000012856 0.0000092560 0.0105623536 26
Fe 0.0000000000 0.0000000000 26.3022626677 0.0000020569 -0.0000041138 -0.0124292325 26
Fe 1.4167925978 1.4167925978 27.7190552655 0.0000023140 0.0000015427 -0.0165797661 26
Fe 0.0000000000 0.0000000000 29.1358475800 -0.0000084846 -0.0000118271 0.0000406234 26
Fe 1.4167925978 1.4167925978 30.5526404611 0.0000082275 0.0000023140 0.0035530090 26
Fe 0.0000000000 0.0000000000 31.9694330589 0.0000066849 0.0000048851 -0.0073237906 26
Fe 1.4167925978 1.4167925978 33.3862253734 -0.0000023140 -0.0000012856 -0.0079938204 26
24
Lattice="2.8335851956 0 0 0 2.8335851956 0 0 0 35.2030173416" Properties=species:S:1:pos:R:3:force:R:3:Z:I:1 config_type=surface_sep_100 energy=-83060.8034720974 pbc="T T T"
Fe 0.0000000000 0.0000000000 0.0000000000 -0.0000002571 -0.0000012856 0.0031984538 26
Fe 1.4167925978 1.4167925978 1.4167925978 0.0000000000 -0.0000005142 0.0006905986 26
Fe 0.0000000000 0.0000000000 2.8335851956 0.0000002571 0.0000005142 -0.0033231523 26
Fe 1.4167925978 1.4167925978 4.2503777934 -0.0000002571 -0.0000002571 0.0042286953 26
Fe 0.0000000000 0.0000000000 5.6671703912 0.0000000000 0.0000000000 0.0112511525 26
Fe 1.4167925978 1.4167925978 7.0839629890 -0.0000002571 0.0000007713 0.0100607312 26
Fe 0.0000000000 0.0000000000 8.5007555868 0.0000000000 -0.0000002571 -0.0109619032 26
Fe 1.4167925978 1.4167925978 9.9175481846 0.0000002571 -0.0000005142 0.0269307750 26
Fe 0.0000000000 0.0000000000 11.3343407824 -0.0000005142 0.0000002571 -0.1246008570 26
Fe 1.4167925978 1.4167925978 12.7511333802 0.0000002571 -0.0000002571 -0.0751955451 26
Fe 0.0000000000 0.0000000000 14.1679259780 0.0000000000 -0.0000002571 0.0260959374 26
Fe 1.4167925978 1.4167925978 15.5847185758 -0.0000002571 -0.0000005142 1.1738934655 26
Fe 0.0000000000 0.0000000000 18.2015050346 0.0000000000 0.0000012856 -1.1744082006 26
Fe 1.4167925978 1.4167925978 19.6182976324 -0.0000002571 -0.0000002571 -0.0274007728 26
Fe 0.0000000000 0.0000000000 21.0350899468 0.0000002571 0.0000005142 0.0736729371 26
Fe 1.4167925978 1.4167925978 22.4518828280 0.0000002571 -0.0000005142 0.1241735395 26
Fe 0.0000000000 0.0000000000 23.8686754258 0.0000007713 0.0000005142 -0.0257272411 26
Fe 1.4167925978 1.4167925978 25.2854677402 -0.0000002571 0.0000002571 0.0131193168 26
Fe 0.0000000000 0.0000000000 26.7022606214 -0.0000005142 0.0000000000 -0.0086111426 26
Fe 1.4167925978 1.4167925978 28.1190532192 0.0000002571 0.0000000000 -0.0114712390 26
Fe 0.0000000000 0.0000000000 29.5358455336 0.0000002571 -0.0000002571 -0.0056628572 26
Fe 1.4167925978 1.4167925978 30.9526384148 0.0000000000 0.0000002571 0.0021473863 26
Fe 0.0000000000 0.0000000000 32.3694310126 -0.0000002571 0.0000007713 -0.0004478864 26
Fe 1.4167925978 1.4167925978 33.7862233270 0.0000010284 0.0000002571 -0.0016519345 26
24
Lattice="2.8335851956 0 0 0 2.8335851956 0 0 0 35.6030147286" Properties=species:S:1:pos:R:3:force:R:3:Z:I:1 config_type=surface_sep_100 energy=-83060.4754367980 pbc="T T T"
Fe 0.0000000000 0.0000000000 0.0000000000 -0.0000015427 0.0000002571 -0.0011143166 26
Fe 1.4167925978 1.4167925978 1.4167925978 0.0000000000 0.0000012856 -0.0007695315 26
Fe 0.0000000000 0.0000000000 2.8335851956 -0.0000002571 -0.0000005142 -0.0061343978 26
Fe 1.4167925978 1.4167925978 4.2503777934 -0.0000002571 0.0000000000 0.0066373058 26
Fe 0.0000000000 0.0000000000 5.6671703912 0.0000005142 0.0000007713 0.0069486665 26
Fe 1.4167925978 1.4167925978 7.0839629890 0.0000002571 -0.0000002571 0.0085679480 26
Fe 0.0000000000 0.0000000000 8.5007555868 -0.0000002571 0.0000000000 -0.0182054754 26
Fe 1.4167925978 1.4167925978 9.9175481846 0.0000000000 0.0000002571 0.0305609172 26
Fe 0.0000000000 0.0000000000 11.3343407824 0.0000005142 0.0000000000 -0.1171531392 26
Fe 1.4167925978 1.4167925978 12.7511333802 0.0000005142 0.0000000000 -0.1181550985 26
Fe 0.0000000000 0.0000000000 14.1679259780 -0.0000005142 0.0000002571 0.1263448371 26
Fe 1.4167925978 1.4167925978 15.5847185758 0.0000007713 0.0000005142 0.7645407493 26
Fe 0.0000000000 0.0000000000 18.6015027049 0.0000002571 -0.0000017998 -0.7631454110 26
Fe 1.4167925978 1.4167925978 20.0182955861 -0.0000002571 0.0000002571 -0.1238696350 26
Fe 0.0000000000 0.0000000000 21.4350879005 -0.0000002571 -0.0000002571 0.1202258660 26
Fe 1.4167925978 1.4167925978 22.8518804983 -0.0000005142 0.0000002571 0.1183376470 26
Fe 0.0000000000 0.0000000000 24.2686733795 0.0000005142 -0.0000002571 -0.0313299345 26
Fe 1.4167925978 1.4167925978 25.6854656939 -0.0000005142 -0.0000007713 0.0163396250 26
Fe 0.0000000000 0.0000000000 27.1022582917 -0.0000002571 0.0000002571 -0.0102980441 26
Fe 1.4167925978 1.4167925978 28.5190511729 -0.0000005142 0.0000000000 -0.0081750833 26
Fe 0.0000000000 0.0000000000 29.9358434873 0.0000005142 -0.0000002571 -0.0067962000 26
Fe 1.4167925978 1.4167925978 31.3526360851 0.0000000000 0.0000007713 0.0063007482 26
Fe 0.0000000000 0.0000000000 32.7694289663 -0.0000002571 -0.0000002571 0.0000979591 26
Fe 1.4167925978 1.4167925978 34.1862212807 0.0000012856 -0.0000005142 0.0002437407 26
24
Lattice="2.8335851956 0 0 0 2.8335851956 0 0 0 36.0030121156" Properties=species:S:1:pos:R:3:force:R:3:Z:I:1 config_type=surface_sep_100 energy=-83060.2460770594 pbc="T T T"
Fe 0.0000000000 0.0000000000 0.0000000000 -0.0000033424 -0.0000010284 -0.0006278637 26
Fe 1.4167925978 1.4167925978 1.4167925978 0.0000025711 0.0000017998 0.0041207089 26
Fe 0.0000000000 0.0000000000 2.8335851956 0.0000010284 -0.0000028282 -0.0036435119 26
Fe 1.4167925978 1.4167925978 4.2503777934 -0.0000025711 -0.0000035995 0.0123567273 26
Fe 0.0000000000 0.0000000000 5.6671703912 0.0000002571 0.0000017998 0.0062341566 26
Fe 1.4167925978 1.4167925978 7.0839629890 0.0000030853 -0.0000005142 0.0115545428 26
Fe 0.0000000000 0.0000000000 8.5007555868 -0.0000002571 0.0000000000 -0.0242005193 26
Fe 1.4167925978 1.4167925978 9.9175481846 -0.0000007713 0.0000015427 0.0262360626 26
Fe 0.0000000000 0.0000000000 11.3343407824 0.0000002571 0.0000017998 -0.1118026711 26
Fe 1.4167925978 1.4167925978 12.7511333802 0.0000010284 -0.0000017998 -0.1461515963 26
Fe 0.0000000000 0.0000000000 14.1679259780 0.0000012856 -0.0000020569 0.1874283620 26
Fe 1.4167925978 1.4167925978 15.5847185758 -0.0000028282 0.0000020569 0.5183726811 26
Fe 0.0000000000 0.0000000000 19.0015006586 0.0000000000 0.0000002571 -0.5202706703 26
Fe 1.4167925978 1.4167925978 20.4182935398 -0.0000005142 0.0000020569 -0.1910209660 26
Fe 0.0000000000 0.0000000000 21.8350858542 0.0000005142 -0.0000010284 0.1425340525 26
Fe 1.4167925978 1.4167925978 23.2518784520 -0.0000015427 -0.0000007713 0.1074125105 26
Fe 0.0000000000 0.0000000000 24.6686713332 0.0000030853 -0.0000007713 -0.0309249855 26
Fe 1.4167925978 1.4167925978 26.0854636476 -0.0000028282 0.0000005142 0.0198304133 26
Fe 0.0000000000 0.0000000000 27.5022562454 0.0000005142 0.0000030853 -0.0125631870 26
Fe 1.4167925978 1.4167925978 28.9190491266 -0.0000028282 -0.0000017998 -0.0023826424 26
Fe 0.0000000000 0.0000000000 30.3358414410 0.0000025711 0.0000012856 -0.0060804046 26
Fe 1.4167925978 1.4167925978 31.7526340388 -0.0000030853 0.0000043709 0.0100069951 26
Fe 0.0000000000 0.0000000000 33.1694269200 0.0000048851 -0.0000087418 0.0007222232 26
Fe 1.4167925978 1.4167925978 34.5862192344 -0.0000012856 0.0000043709 0.0028593251 26
24
Lattice="2.8335851956 0 0 0 2.8335851956 0 0 0 36.4030095025" Properties=species:S:1:pos:R:3:force:R:3:Z:I:1 config_type=surface_sep_100 energy=-83060.0873650177 pbc="T T T"
Fe 0.0000000000 0.0000000000 0.0000000000 -0.0000035995 0.0000056564 -0.0036005745 26
Fe 1.4167925978 1.4167925978 1.4167925978 -0.0000005142 0.0000005142 0.0033442354 26
Fe 0.0000000000 0.0000000000 2.8335851956 -0.0000010284 0.0000010284 -0.0068849031 26
Fe 1.4167925978 1.4167925978 4.2503777934 -0.0000017998 0.0000002571 0.0133859404 26
Fe 0.0000000000 0.0000000000 5.6671703912 0.0000012856 -0.0000005142 0.0018527378 26
Fe 1.4167925978 1.4167925978 7.0839629890 -0.0000015427 -0.0000005142 0.0109940420 26
Fe 0.0000000000 0.0000000000 8.5007555868 0.0000005142 -0.0000002571 -0.0244116070 26
Fe 1.4167925978 1.4167925978 9.9175481846 -0.0000012856 -0.0000012856 0.0291514378 26
Fe 0.0000000000 0.0000000000 11.3343407824 0.0000020569 -0.0000007713 -0.1093241266 26
Fe 1.4167925978 1.4167925978 12.7511333802 -0.0000015427 -0.0000017998 -0.1561300521 26
Fe 0.0000000000 0.0000000000 14.1679259780 0.0000041138 0.0000017998 0.2485303988 26
Fe 1.4167925978 1.4167925978 15.5847185758 0.0000002571 0.0000012856 0.3272375581 26
Fe 0.0000000000 0.0000000000 19.4014986123 -0.0000017998 0.0000017998 -0.3262517967 26
Fe 1.4167925978 1.4167925978 20.8182912101 0.0000012856 -0.0000012856 -0.2464339203 26
Fe 0.0000000000 0.0000000000 22.2350838079 0.0000033424 -0.0000007713 0.1576176930 26
Fe 1.4167925978 1.4167925978 23.6518764057 -0.0000007713 0.0000005142 0.1089826839 26
Fe 0.0000000000 0.0000000000 25.0686690035 -0.0000023140 0.0000005142 -0.0314245511 26
Fe 1.4167925978 1.4167925978 26.4854616013 -0.0000056564 0.0000015427 0.0214566368 26
Fe 0.0000000000 0.0000000000 27.9022541991 -0.0000017998 0.0000023140 -0.0125819560 26
Fe 1.4167925978 1.4167925978 29.3190467969 0.0000005142 0.0000002571 -0.0012747535 26
Fe 0.0000000000 0.0000000000 30.7358393947 0.0000017998 -0.0000017998 -0.0113236576 26
Fe 1.4167925978 1.4167925978 32.1526319925 -0.0000020569 -0.0000023140 0.0085275817 26
Fe 0.0000000000 0.0000000000 33.5694245903 0.0000041138 -0.0000002571 -0.0034730477 26
Fe 1.4167925978 1.4167925978 34.9862171881 0.0000066849 -0.0000053993 0.0020345148 26
24
Lattice="2.8335851956 0 0 0 2.8335851956 0 0 0 36.8030068895" Properties=species:S:1:pos:R:3:force:R:3:Z:I:1 config_type=surface_sep_100 energy=-83059.9835884107 pbc="T T T"
Fe 0.0000000000 0.0000000000 0.0000000000 -0.0000015427 0.0000000000 -0.0052460812 26
Fe 1.4167925978 1.4167925978 1.4167925978 0.0000017998 -0.0000010284 0.0043585360 26
Fe 0.0000000000 0.0000000000 2.8335851956 -0.0000010284 0.0000023140 -0.0084368217 26
Fe 1.4167925978 1.4167925978 4.2503777934 0.0000005142 -0.0000002571 0.0131787094 26
Fe 0.0000000000 0.0000000000 5.6671703912 0.0000000000 -0.0000005142 -0.0005561299 26
Fe 1.4167925978 1.4167925978 7.0839629890 -0.0000005142 -0.0000012856 0.0132992942 26
Fe 0.0000000000 0.0000000000 8.5007555868 -0.0000002571 0.0000012856 -0.0275380698 26
Fe 1.4167925978 1.4167925978 9.9175481846 0.0000007713 0.0000002571 0.0223174425 26
Fe 0.0000000000 0.0000000000 11.3343407824 0.0000000000 -0.0000002571 -0.1102288982 26
Fe 1.4167925978 1.4167925978 12.7511333802 0.0000002571 -0.0000010284 -0.1725349831 26
Fe 0.0000000000 0.0000000000 14.1679259780 -0.0000007713 0.0000002571 0.2842787760 26
Fe 1.4167925978 1.4167925978 15.5847185758 0.0000002571 0.0000002571 0.1817122829 26
Fe 0.0000000000 0.0000000000 19.8014965660 -0.0000015427 0.0000007713 -0.1812901075 26
Fe 1.4167925978 1.4167925978 21.2182891638 0.0000002571 -0.0000005142 -0.2837015631 26
Fe 0.0000000000 0.0000000000 22.6350817616 0.0000012856 -0.0000012856 0.1729383894 26
Fe 1.4167925978 1.4167925978 24.0518743594 -0.0000002571 0.0000000000 0.1098699720 26
Fe 0.0000000000 0.0000000000 25.4686669572 0.0000005142 0.0000015427 -0.0235227762 26
Fe 1.4167925978 1.4167925978 26.8854595550 -0.0000012856 -0.0000005142 0.0262748863 26
Fe 0.0000000000 0.0000000000 28.3022521528 0.0000010284 -0.0000010284 -0.0134751577 26
Fe 1.4167925978 1.4167925978 29.7190447506 -0.0000002571 0.0000000000 0.0017527218 26
Fe 0.0000000000 0.0000000000 31.1358373484 0.0000000000 0.0000012856 -0.0113570820 26
Fe 1.4167925978 1.4167925978 32.5526299462 -0.0000002571 0.0000000000 0.0095141144 26
Fe 0.0000000000 0.0000000000 33.9694225440 -0.0000005142 0.0000000000 -0.0049347205 26
Fe 1.4167925978 1.4167925978 35.3862151418 0.0000015427 -0.0000002571 0.0033272661 26
24
Lattice="2.8335851956 0 0 0 2.8335851956 0 0 0 37.2030042765" Properties=species:S:1:pos:R:3:force:R:3:Z:I:1 config_type=surface_sep_100 energy=-83059.9191646379 pbc="T T T"
Fe 0.0000000000 0.0000000000 0.0000000000 -0.0000002571 -0.0000002571 -0.0041752163 26
Fe 1.4167925978 1.4167925978 1.4167925978 -0.0000007713 0.0000015427 0.0067661181 26
Fe 0.0000000000 0.0000000000 2.8335851956 0.0000002571 0.0000002571 -0.0074148077 26
Fe 1.4167925978 1.4167925978 4.2503777934 0.0000010284 0.0000002571 0.0149111194 26
Fe 0.0000000000 0.0000000000 5.6671703912 0.0000000000 -0.0000002571 -0.0007795588 26
Fe 1.4167925978 1.4167925978 7.0839629890 -0.0000005142 0.0000000000 0.0157295019 26
Fe 0.0000000000 0.0000000000 8.5007555868 -0.0000002571 0.0000005142 -0.0265589933 26
Fe 1.4167925978 1.4167925978 9.9175481846 -0.0000005142 0.0000002571 0.0205251257 26
Fe 0.0000000000 0.0000000000 11.3343407824 0.0000000000 0.0000000000 -0.1099730733 26
Fe 1.4167925978 1.4167925978 12.7511333802 0.0000002571 0.0000002571 -0.1804568126 26
Fe 0.0000000000 0.0000000000 14.1679259780 -0.0000005142 0.0000005142 0.3101978214 26
Fe 1.4167925978 1.4167925978 15.5847185758 0.0000000000 -0.0000005142 0.0829489672 26
Fe 0.0000000000 0.0000000000 20.2014945197 0.0000002571 0.0000000000 -0.0837285261 26
Fe 1.4167925978 1.4167925978 21.6182871175 -0.0000002571 -0.0000005142 -0.3136950375 26
Fe 0.0000000000 0.0000000000 23.0350794319 0.0000000000 0.0000000000 0.1775807753 26
Fe 1.4167925978 1.4167925978 24.4518723131 0.0000002571 0.0000002571 0.1079074481 26
Fe 0.0000000000 0.0000000000 25.8686649109 -0.0000005142 0.0000000000 -0.0215641090 26
Fe 1.4167925978 1.4167925978 27.2854572253 0.0000005142 -0.0000002571 0.0271446909 26
Fe 0.0000000000 0.0000000000 28.7022501065 0.0000010284 -0.0000007713 -0.0146771490 26
Fe 1.4167925978 1.4167925978 30.1190427043 -0.0000002571 0.0000005142 0.0028094457 26
Fe 0.0000000000 0.0000000000 31.5358350187 -0.0000005142 0.0000002571 -0.0134517606 26
Fe 1.4167925978 1.4167925978 32.9526278999 0.0000007713 0.0000000000 0.0094169266 26
Fe 0.0000000000 0.0000000000 34.3694204977 0.0000007713 -0.0000010284 -0.0052741063 26
Fe 1.4167925978 1.4167925978 35.7862128121 -0.0000002571 -0.0000012856 0.0058112100 26
24
Lattice="2.8335851956 0 0 0 2.8335851956 0 0 0 37.6030044970" Properties=species:S:1:pos:R:3:force:R:3:Z:I:1 config_type=surface_sep_100 energy=-83059.8813239403 pbc="T T T"
Fe 0.0000000000 0.0000000000 0.0000000000 -0.0000095131 -0.0000215973 -0.0055970370 26
Fe 1.4167925978 1.4167925978 1.4167925978 -0.0000033424 -0.0000015427 0.0057099085 26
Fe 0.0000000000 0.0000000000 2.8335851956 -0.0000064278 0.0000028282 -0.0113252003 26
Fe 1.4167925978 1.4167925978 4.2503777934 -0.0000002571 -0.0000007713 0.0118633324 26
Fe 0.0000000000 0.0000000000 5.6671703912 0.0000043709 0.0000007713 -0.0018689357 26
Fe 1.4167925978 1.4167925978 7.0839629890 0.0000020569 0.0000010284 0.0157302733 26
Fe 0.0000000000 0.0000000000 8.5007555868 -0.0000020569 0.0000066849 -0.0278764271 26
Fe 1.4167925978 1.4167925978 9.9175481846 -0.0000033424 0.0000002571 0.0231522801 26
Fe 0.0000000000 0.0000000000 11.3343407824 -0.0000015427 0.0000028282 -0.1127069285 26
Fe 1.4167925978 1.4167925978 12.7511333802 0.0000041138 -0.0000012856 -0.1902660898 26
Fe 0.0000000000 0.0000000000 14.1679259780 0.0000077133 0.0000043709 0.3263016761 26
Fe 1.4167925978 1.4167925978 15.5847185758 0.0000041138 -0.0000023140 -0.0018044010 26
Fe 0.0000000000 0.0000000000 20.6014924733 0.0000033424 0.0000015427 -0.0011333428 26
Fe 1.4167925978 1.4167925978 22.0182850711 0.0000056564 0.0000015427 -0.3296752221 26
Fe 0.0000000000 0.0000000000 23.4350773856 -0.0000030853 0.0000053993 0.1867573037 26
Fe 1.4167925978 1.4167925978 24.8518702667 0.0000010284 0.0000028282 0.1100442929 26
Fe 0.0000000000 0.0000000000 26.2686628645 0.0000046280 -0.0000023140 -0.0231579365 26
Fe 1.4167925978 1.4167925978 27.6854551790 0.0000038567 -0.0000061707 0.0309172722 26
Fe 0.0000000000 0.0000000000 29.1022480601 -0.0000025711 0.0000041138 -0.0117244928 26
Fe 1.4167925978 1.4167925978 30.5190406579 0.0000020569 0.0000025711 0.0050666182 26
Fe 0.0000000000 0.0000000000 31.9358329724 -0.0000005142 -0.0000012856 -0.0100201077 26
Fe 1.4167925978 1.4167925978 33.3526258535 0.0000007713 -0.0000043709 0.0122325430 26
Fe 0.0000000000 0.0000000000 34.7694184513 -0.0000010284 0.0000015427 -0.0056068072 26
Fe 1.4167925978 1.4167925978 36.1862107658 -0.0000100273 0.0000033424 0.0049876853 26
24
Lattice="2.8335851956 0 0 0 2.8335851956 0 0 0 38.0030018840" Properties=species:S:1:pos:R:3:force:R:3:Z:I:1 config_type=surface_sep_100 energy=-83059.8605374346 pbc="T T T"
Fe 0.0000000000 0.0000000000 0.0000000000 0.0000017998 0.0000071991 -0.0097018050 26
Fe 1.4167925978 1.4167925978 1.4167925978 -0.0000012856 -0.0000038567 0.0034360238 26
Fe 0.0000000000 0.0000000000 2.8335851956 0.0000002571 0.0000005142 -0.0113010319 26
Fe 1.4167925978 1.4167925978 4.2503777934 0.0000005142 -0.0000005142 0.0112313550 26
Fe 0.0000000000 0.0000000000 5.6671703912 -0.0000017998 -0.0000015427 -0.0033270090 26
Fe 1.4167925978 1.4167925978 7.0839629890 0.0000007713 0.0000005142 0.0164998048 26
Fe 0.0000000000 0.0000000000 8.5007555868 0.0000017998 -0.0000023140 -0.0289233808 26
Fe 1.4167925978 1.4167925978 9.9175481846 -0.0000030853 0.0000033424 0.0201471734 26
Fe 0.0000000000 0.0000000000 11.3343407824 0.0000007713 -0.0000007713 -0.1084067566 26
Fe 1.4167925978 1.4167925978 12.7511333802 0.0000015427 0.0000000000 -0.1876458774 26
Fe 0.0000000000 0.0000000000 14.1679259780 0.0000000000 -0.0000012856 0.3414205408 26
Fe 1.4167925978 1.4167925978 15.5847185758 -0.0000010284 0.0000007713 -0.0237485192 26
Fe 0.0000000000 0.0000000000 21.0014901437 -0.0000010284 -0.0000041138 0.0251718825 26
Fe 1.4167925978 1.4167925978 22.4182830248 0.0000000000 0.0000007713 -0.3357597405 26
Fe 0.0000000000 0.0000000000 23.8350753393 0.0000012856 0.0000043709 0.1931835218 26
Fe 1.4167925978 1.4167925978 25.2518679371 0.0000015427 -0.0000023140 0.1133473906 26
Fe 0.0000000000 0.0000000000 26.6686608182 -0.0000012856 -0.0000005142 -0.0168831564 26
Fe 1.4167925978 1.4167925978 28.0854531327 -0.0000023140 0.0000007713 0.0297201660 26
Fe 0.0000000000 0.0000000000 29.5022457305 0.0000028282 0.0000005142 -0.0171130132 26
Fe 1.4167925978 1.4167925978 30.9190386116 -0.0000017998 -0.0000012856 0.0011562256 26
Fe 0.0000000000 0.0000000000 32.3358309261 0.0000002571 -0.0000005142 -0.0143434196 26
Fe 1.4167925978 1.4167925978 33.7526235239 -0.0000010284 0.0000051422 0.0071821228 26
Fe 0.0000000000 0.0000000000 35.1694164050 0.0000020569 0.0000015427 -0.0091209925 26
Fe 1.4167925978 1.4167925978 36.5862087195 -0.0000007713 -0.0000061707 0.0037784949 26
24
Lattice="2.8335851956 0 0 0 2.8335851956 0 0 0 35.8030120053" Properties=species:S:1:pos:R:3:force:R:3:Z:I:1 config_type=surface_sep_100 energy=-83060.3509663401 pbc="T T T"
Fe 0.0000000000 0.0000000000 0.0000000000 0.0000010284 -0.0000053993 -0.0034974732 26
Fe 1.4167925978 1.4167925978 1.4167925978 0.0000012856 0.0000002571 -0.0004000638 26
Fe 0.0000000000 0.0000000000 2.8335851956 0.0000023140 -0.0000017998 -0.0073749556 26
Fe 1.4167925978 1.4167925978 4.2503777934 0.0000023140 0.0000005142 0.0076248669 26
Fe 0.0000000000 0.0000000000 5.6671703912 -0.0000017998 -0.0000023140 0.0027415685 26
Fe 1.4167925978 1.4167925978 7.0839629890 0.0000007713 0.0000007713 0.0066797290 26
Fe 0.0000000000 0.0000000000 8.5007555868 0.0000010284 -0.0000005142 -0.0208316013 26
Fe 1.4167925978 1.4167925978 9.9175481846 0.0000000000 -0.0000007713 0.0299052856 26
Fe 0.0000000000 0.0000000000 11.3343407824 0.0000023140 0.0000012856 -0.1195612355 26
Fe 1.4167925978 1.4167925978 12.7511333802 0.0000025711 -0.0000046280 -0.1253763021 26
Fe 0.0000000000 0.0000000000 14.1679259780 -0.0000056564 0.0000051422 0.1600373593 26
Fe 1.4167925978 1.4167925978 15.5847185758 -0.0000002571 -0.0000023140 0.6140941233 26
Fe 0.0000000000 0.0000000000 18.8015016818 -0.0000010284 -0.0000012856 -0.6129985757 26
Fe 1.4167925978 1.4167925978 20.2182945629 0.0000000000 0.0000023140 -0.1578200389 26
Fe 0.0000000000 0.0000000000 21.6350868774 -0.0000012856 0.0000012856 0.1284953087 26
Fe 1.4167925978 1.4167925978 23.0518794752 0.0000002571 0.0000048851 0.1219770451 26
Fe 0.0000000000 0.0000000000 24.4686723563 -0.0000007713 0.0000038567 -0.0289071829 26
Fe 1.4167925978 1.4167925978 25.8854646708 0.0000007713 0.0000025711 0.0205302679 26
Fe 0.0000000000 0.0000000000 27.3022572686 -0.0000007713 0.0000033424 -0.0063148893 26
Fe 1.4167925978 1.4167925978 28.7190501497 0.0000017998 0.0000035995 -0.0014480459 26
Fe 0.0000000000 0.0000000000 30.1358424642 0.0000010284 -0.0000017998 -0.0061487960 26
Fe 1.4167925978 1.4167925978 31.5526350620 0.0000002571 -0.0000010284 0.0064221043 26
Fe 0.0000000000 0.0000000000 32.9694279431 -0.0000012856 -0.0000015427 -0.0041824154 26
Fe 1.4167925978 1.4167925978 34.3862202576 -0.0000048851 -0.0000064278 -0.0036463401 26
24
Lattice="2.8335851956 0 0 0 2.8335851956 0 0 0 36.2030122258" Properties=species:S:1:pos:R:3:force:R:3:Z:I:1 config_type=surface_sep_100 energy=-83060.1589361331 pbc="T T T"
Fe 0.0000000000 0.0000000000 0.0000000000 0.0000046280 -0.0000151695 0.0010328126 26
Fe 1.4167925978 1.4167925978 1.4167925978 -0.0000038567 0.0000074562 0.0063961362 26
Fe 0.0000000000 0.0000000000 2.8335851956 0.0000048851 -0.0000043709 -0.0043009433 26
Fe 1.4167925978 1.4167925978 4.2503777934 0.0000035995 0.0000046280 0.0122469412 26
Fe 0.0000000000 0.0000000000 5.6671703912 -0.0000017998 0.0000005142 0.0024096390 26
Fe 1.4167925978 1.4167925978 7.0839629890 -0.0000038567 0.0000010284 0.0089646694 26
Fe 0.0000000000 0.0000000000 8.5007555868 0.0000000000 0.0000025711 -0.0247705331 26
Fe 1.4167925978 1.4167925978 9.9175481846 0.0000035995 0.0000028282 0.0299718772 26
Fe 0.0000000000 0.0000000000 11.3343407824 -0.0000017998 0.0000020569 -0.1105669984 26
Fe 1.4167925978 1.4167925978 12.7511333802 -0.0000123413 -0.0000071991 -0.1481683705 26
Fe 0.0000000000 0.0000000000 14.1679259780 0.0000043709 -0.0000007713 0.2236346528 26
Fe 1.4167925978 1.4167925978 15.5847185758 -0.0000023140 -0.0000007713 0.4050314612 26
Fe 0.0000000000 0.0000000000 19.2014996355 -0.0000154266 0.0000023140 -0.4031954356 26
Fe 1.4167925978 1.4167925978 20.6182925166 -0.0000025711 0.0000015427 -0.2192182670 26
Fe 0.0000000000 0.0000000000 22.0350848311 -0.0000035995 0.0000025711 0.1495601092 26
Fe 1.4167925978 1.4167925978 23.4518774289 -0.0000069420 0.0000064278 0.1088052777 26
Fe 0.0000000000 0.0000000000 24.8686703100 0.0000035995 -0.0000010284 -0.0349731893 26
Fe 1.4167925978 1.4167925978 26.2854626245 0.0000038567 0.0000020569 0.0183047200 26
Fe 0.0000000000 0.0000000000 27.7022552223 0.0000061707 0.0000043709 -0.0144380363 26
Fe 1.4167925978 1.4167925978 29.1190481034 0.0000030853 -0.0000056564 -0.0049681449 26
Fe 0.0000000000 0.0000000000 30.5358404179 0.0000005142 -0.0000056564 -0.0114447566 26
Fe 1.4167925978 1.4167925978 31.9526330157 0.0000079704 0.0000002571 0.0076996861 26
Fe 0.0000000000 0.0000000000 33.3694258968 0.0000030853 -0.0000023140 -0.0018648220 26
Fe 1.4167925978 1.4167925978 34.7862182113 0.0000053993 0.0000023140 0.0038512571 26
24
Lattice="2.8335851956 0 0 0 2.8335851956 0 0 0 36.6030096128" Properties=species:S:1:pos:R:3:force:R:3:Z:I:1 config_type=surface_sep_100 energy=-83060.0296345657 pbc="T T T"
Fe 0.0000000000 0.0000000000 0.0000000000 0.0000033424 -0.0000005142 -0.0048097648 26
Fe 1.4167925978 1.4167925978 1.4167925978 0.0000023140 -0.0000015427 0.0027546812 26
Fe 0.0000000000 0.0000000000 2.8335851956 -0.0000002571 0.0000012856 -0.0087414975 26
Fe 1.4167925978 1.4167925978 4.2503777934 -0.0000017998 -0.0000012856 0.0115540285 26
Fe 0.0000000000 0.0000000000 5.6671703912 -0.0000005142 0.0000015427 0.0000568214 26
Fe 1.4167925978 1.4167925978 7.0839629890 0.0000020569 -0.0000002571 0.0148270443 26
Fe 0.0000000000 0.0000000000 8.5007555868 -0.0000023140 -0.0000002571 -0.0221672900 26