128
Lattice="16.2852698230 0 0 0 28.0185461661 0 0 0 4.0084400289" Properties=species:S:1:pos:R:3:force:R:3:Z:I:1 config_type=small_crack energy=-442949.80534091 pbc="T T T"
Fe 0.0585504305 2.8453460582 1.9863664731 3.4126910277 -1.8929873750 -0.0028680669 26
Fe 0.2485979009 1.4109427492 -0.0127122816 3.0502560800 -1.5490391815 0.0505198857 26
Fe 0.4011289951 0.0056656453 2.0019921895 0.7320867280 -0.8041396123 -0.3760625718 26
Fe 2.0369420071 3.0631566565 0.0342055807 1.0806971049 0.8670339659 -0.3963817521 26
Fe 4.4173859535 2.1070207802 -0.0262485979 -1.0293215557 0.3482673916 0.1236372072 26
Fe 2.2880266687 1.7828543417 2.0029465063 0.4863436634 -0.5906063141 0.1780091213 26
Fe 4.4768060175 0.5997604311 2.0142908253 -0.2727645995 -0.4602040172 -0.2037620734 26
Fe 2.4507881694 0.3152828237 0.0108378470 0.0554612911 -0.5259528109 -0.1530830364 26
Fe 6.3780835844 2.5650179375 1.9615754069 -0.2533213945 -0.1238362106 0.5596908416 26
Fe 6.4681867253 1.0931275660 0.0262469693 0.2969944294 -1.3614341847 -0.2066010868 26
Fe 8.4641810500 1.4728056037 2.0367302986 0.1677876961 -1.2964358964 0.1944238226 26
Fe 8.3315700978 2.8732117833 0.1128487772 0.8055586048 0.4545133921 -0.7842750033 26
Fe -0.0150589890 4.2421173656 -0.0495121058 1.0081881067 -0.5693293975 0.1180532828 26
Fe 4.0127377116 5.0505474731 -0.0505120214 -0.1189498269 -0.2052684834 0.2335984534 26
Fe 1.8883552052 4.4673801034 1.9999044179 0.2697620639 0.1521921487 0.0608271858 26
Fe 4.2481347728 3.7034201822 1.9850099101 -1.0446039426 -1.0454318382 -0.1027197309 26
Fe 5.7753315492 5.4740117158 2.0738541997 0.7060555824 0.4606084520 -0.2437072642 26
Fe 6.2666174266 3.9362669701 -0.0135786579 -0.6840785541 1.0315188215 0.0589351101 26
Fe 8.1147724433 6.3318138758 0.0919450048 -0.1802223279 -0.2230990918 -0.3017334889 26
Fe 8.1131260025 4.6025152724 1.9909230916 0.3717965956 -0.2358934211 0.2943996710 26
Fe 0.0062258586 10.2464572647 2.0592283988 1.5719965719 0.6814246603 -0.5661440563 26
Fe 4.0580075047 10.8938309392 3.9672545815 0.3861906659 0.1324753782 0.2787778983 26
Fe 4.0792092975 9.4319902077 2.0779222601 -0.3056983889 0.3335257079 -0.4129273225 26
Fe 1.7614489831 10.0200285016 3.9649029886 0.5360361678 -0.2294288935 0.1804760959 26
Fe 6.3061026918 10.4206412537 1.9454888173 -0.7428097756 -0.1340920886 0.4029200703 26
Fe 5.8238909668 9.0521753737 3.9964931550 0.2556065920 -0.2494397984 -0.0588610623 26
Fe 8.2277971015 8.1259197105 2.0527061483 -0.4232783314 0.2333837662 -0.0971491763 26
Fe 8.1933260708 9.8856961964 3.9581022599 0.1682546087 0.2184996433 0.2373172986 26
Fe -0.0173975537 11.6014438268 3.9497251171 4.5743540071 2.6762786738 0.6526506606 26
Fe 0.2559279008 13.0722137718 2.0146377015 1.7751760331 1.3034341852 -0.1102157855 26
Fe 0.3067330571 14.5148834837 4.0011881983 1.4378440623 0.9988079469 0.0169001257 26
Fe 2.1197460900 11.4084112666 1.9586831430 -0.1485938882 -0.7775237976 0.5231611058 26
Fe 4.2826172031 12.3997428680 1.9558071643 0.7495298710 -0.2745461177 0.2444497991 26
Fe 2.2314890974 12.7770432563 4.0817823701 0.2721400783 0.2143959037 -0.9505979413 26
Fe 2.5460944540 14.1969771030 2.0141751999 -1.5612172171 0.1034087869 0.1984522288 26
Fe 4.4526663621 13.8100504917 3.9779719176 0.0243828106 0.7496427425 0.0612087376 26
Fe 6.4336717244 11.8738003079 4.0091500667 -0.3881963844 0.2901786890 -0.1267793537 26
Fe 6.5739400105 13.4686363240 2.0495956617 -0.8053284909 0.2588171300 -0.1604667337 26
Fe 8.3672006397 11.5520375752 2.0200883813 0.6117734445 -0.1337658155 -0.0602209194 26
Fe 8.6083626864 13.0494388220 4.0983656603 -1.0885387159 1.1084634888 -0.3667122368 26
Fe 10.4520359968 1.5515155698 -0.0439865137 -0.4444626882 -0.1713432763 0.2719876118 26
Fe 12.4836950624 1.8161886605 1.9543268333 -0.5470569493 -0.4332483026 0.1590199733 26
Fe 10.4153452839 3.2079522475 2.0132062263 -0.4977004883 0.0423126636 -0.2668112075 26
Fe 12.3863694044 3.3564462233 -0.0810289885 -0.2831431192 -0.1727000480 0.3921062627 26
Fe 14.5881899973 1.8927310572 -0.0338684756 -4.2288407824 1.6924967747 0.0343810639 26
Fe 10.2401662650 4.8227882035 -0.0472614815 -0.2357841491 -0.3044935694 0.2356962174 26
Fe 10.1162581610 6.3319376439 1.9585105191 -0.0430127753 0.5271748568 0.2471666850 26
Fe 12.2190512852 4.9155230439 1.9909393769 0.3991791136 0.0407754004 -0.1124012242 26
Fe 12.2053765441 6.4795359298 0.0217440922 0.0084887580 0.2586422949 -0.1957859936 26
Fe 14.2575078224 4.9694614861 -0.0188681136 -2.4068007169 0.5739776969 -0.0304210491 26
Fe 14.4576375033 3.4096469428 1.9738496147 -3.8501353725 1.8863438986 -0.0609943075 26
Fe 14.2298489201 6.4587282406 1.9861319652 -0.0221973719 0.1018404133 0.0618566559 26
Fe 10.0376393924 8.0808974536 0.0216561518 0.5143630440 -0.3225931153 -0.2088775425 26
Fe 10.3017636695 9.7150167975 1.9733805990 -0.3483635509 0.2962500947 0.0519802729 26
Fe 12.2397514917 8.0785344609 2.0138527515 -0.1059120140 -0.4886255185 -0.1048915427 26
Fe 12.2015641624 9.5857198977 -0.0214998132 0.2418912932 0.2081815446 0.1346381912 26
Fe 14.2498048898 8.0571291022 -0.0047569273 -0.0990782759 -0.0628586153 -0.0765841985 26
Fe 14.4384990542 11.0589994028 -0.0711259159 -4.9070417921 -1.9415203113 0.2922723393 26
Fe 14.3285278841 9.5561735327 1.9894590459 -3.0941923960 -0.7314868894 -0.1573400138 26
Fe 12.4450419745 11.1982107749 2.0133316229 -0.6488086594 -0.3493536832 -0.3977812042 26
Fe 10.3545230582 11.4160783716 -0.0694175911 -0.0373578885 -1.2270420482 0.1548576126 26
Fe 10.5290083247 12.8931865436 1.9224533032 -0.7735938647 0.7309541566 0.3866231257 26
Fe 12.3454803489 12.7038360829 -0.0508035277 0.4539873441 0.5107046197 0.3654935333 26
Fe 14.4785575609 12.6136906003 1.9565448870 -2.2224247699 -1.5659398215 0.1451131272 26
Fe 14.8656421393 25.6089255302 1.9890926273 -3.1681579248 2.3954006975 0.1620358787 26
Fe 14.7279599541 27.1874958188 -0.0476539565 -2.6818600270 0.3968828603 0.3016234456 26
Fe 14.4998179806 28.4563170183 1.9801210721 -0.8609939277 1.2769826641 -0.1176714738 26
Fe 12.7523352449 25.4363374977 -0.0424752407 -0.1137335705 -0.6302082624 -0.0443415220 26
Fe 10.5100978693 26.3941084151 -0.0224687867 0.0653718697 -0.3639608981 0.1948429126 26
Fe 12.4894633050 26.7858864082 1.9355629454 0.7328583164 -0.2332978913 0.6599834501 26
Fe 10.3928536978 27.8641797220 1.9941247757 -0.1338653172 0.8800499244 -0.0006898273 26
Fe 12.3790784891 28.1766793931 0.0568942186 0.7163875651 0.7333157159 -0.8481816007 26
Fe 8.4864755844 25.9477193980 2.1008551770 0.1793617793 -0.0955034125 -0.5906423095 26
Fe 8.4392059602 27.5210132592 0.0057861563 -0.3516417089 0.7451872758 0.2120937369 26
Fe 6.3713659106 27.0256462932 2.0515417515 0.1200052652 1.3127138149 -0.1438789972 26
Fe 6.4361943127 25.6870329414 0.0373128102 0.5432092917 -0.8715755646 -0.0908592268 26
Fe 14.8885180578 24.3408632243 0.0324516571 -1.6572240518 0.8029589612 -0.3491251120 26
Fe 10.7640845660 23.4054210404 -0.1264437204 0.2349243719 0.3237372567 0.5746083888 26
Fe 13.1117869775 24.0440837241 1.9529263001 -0.7519976169 -0.1466190230 0.1430061072 26
Fe 10.6934634934 24.8681900323 2.0348004941 0.3359834265 0.2058022447 -0.6111993169 26
Fe 9.0669477420 22.9534087197 1.9816600301 -0.5948548068 -0.0128269823 -0.0242941075 26
Fe 8.5401550908 24.4311227038 0.0234866161 0.5416380898 -0.0675429102 0.0266705792 26
Fe 6.7403217267 22.1313494699 -0.0693899061 -0.0126356921 0.1996609049 0.1273671082 26
Fe 6.7000026557 23.9565536559 1.9747843892 -0.1748317506 -0.1410739224 0.1744653682 26
Fe 14.8673732635 18.2397367096 1.9735548514 -1.5555502461 -0.9546533441 0.2490993841 26
Fe 10.7321996362 17.6235118707 4.0045836770 0.3535877777 0.1602638736 -0.0602319751 26
Fe 10.7673627908 19.1098782186 1.9639725986 0.3210008304 -0.4120865714 0.1511271973 26
Fe 13.1253949490 18.5679712085 4.0332897221 -0.7568541758 -0.2855514726 -0.1817053409 26
Fe 8.6064068255 18.0901858198 2.0352499676 0.2101420116 -0.1518540485 -0.1938710351 26
Fe 8.9574130171 19.4912987801 4.0340600154 0.1001167449 0.4296765244 -0.0536525192 26
Fe 6.6326142091 20.3498272632 1.9622740449 0.5594247323 -0.1531516849 0.1420116041 26
Fe 6.7329233286 18.6512491928 4.0374457230 -0.5623668470 -0.3797107117 -0.2691156883 26
Fe 14.7600419357 16.8388159154 4.0397468316 -1.8680317223 -1.6044410801 0.2508731890 26
Fe 14.6218451359 15.3687413514 2.1844784090 -0.9376493458 -0.5092876841 -1.4301639167 26
Fe 14.4700615356 13.9586763782 3.9958091736 -1.0795444789 -0.8157808013 0.6067888446 26
Fe 12.7112637944 17.0647707771 1.9803734938 -0.0756372608 0.9333394036 0.3790548230 26
Fe 10.4650984118 16.1193929501 2.0052525005 0.4529974690 0.4635366827 0.0613969425 26
Fe 12.5489908518 15.6746275745 4.0296939346 0.1743581532 0.4605824838 0.0056818834 26
Fe 12.4565182042 14.3339785639 2.0473238666 -0.1039065527 -0.7729523741 -0.4197618320 26
Fe 10.3582116718 14.7870689695 4.0207826349 0.2352910113 -1.4615894962 -0.1386686543 26
Fe 8.5721849595 16.5513206475 4.0023867941 -0.7164181612 0.3292342777 0.1691503814 26
Fe 8.3162912577 15.0470307316 2.0260048199 0.4388515102 -0.5094360368 -0.1233988658 26
Fe 6.4474946615 16.9423185763 1.9197678622 0.0992549108 0.1069921350 0.4968522810 26
Fe 6.3781878102 15.3803543773 3.9992600223 0.4354473681 -0.8144212013 -0.0855825494 26
Fe 4.4183207280 26.8862476406 -0.0485284755 0.0113635097 0.7024388100 0.2761283753 26
Fe 2.4130942839 26.6905768666 1.9825557200 0.8802715536 0.4042220776 0.0458440754 26
Fe 4.4971984324 25.2394241576 1.9777662221 0.2400961482 0.3980815091 0.2494526539 26
Fe 2.5654478687 25.0997779689 0.0021333703 -0.3589858112 0.3444523870 -0.1029053647 26
Fe 0.4298236405 26.5948357653 -0.0953681686 2.7557504795 -1.4026806114 0.5074781409 26
Fe 4.5752797871 23.7410962790 0.0347495087 0.7369970230 -0.3763867881 -0.4317431781 26
Fe 4.7160268601 22.0632802991 1.9388932831 0.1123426030 0.1023908867 0.4757928798 26
Fe 2.6619266927 23.5846925477 2.0322762773 -0.5927724694 -0.1988368660 -0.2818760790 26
Fe 2.6403210252 22.0967139580 -0.0321813216 -0.2345587608 -0.4515303969 0.3215024528 26
Fe 0.5184220224 23.5777680509 -0.0217326925 3.3452892711 -1.0026221801 -0.0110763174 26
Fe 0.5193291120 25.1258588285 1.9346216568 3.0653705738 -1.6974021846 0.0757581027 26
Fe 0.5260663281 22.0174812348 2.0427916760 0.2475631493 0.1793347827 -0.1903388520 26
Fe 4.6852704995 20.3904769252 0.0664439008 0.0747150057 0.2395922117 -0.5135436330 26
Fe 4.6536070494 18.8181699514 2.0145725605 -0.2755398495 -0.0771398142 0.0842232065 26
Fe 2.6220391813 20.5368684727 2.0083662441 -0.1752392706 -0.2320609330 0.0998259530 26
Fe 2.5112114060 18.8996614416 0.0618221413 0.7038909697 0.2034288583 -0.3990217620 26
Fe 0.5793859300 20.4278890756 0.0289942943 0.0534815407 0.0300405256 0.0962570031 26
Fe 0.4649835380 17.4614343513 -0.0590552739 2.1353183270 0.9385294348 0.5017486920 26
Fe 0.5699241883 18.8708251143 2.0943443262 2.9399806448 1.3997719211 -0.7061172889 26
Fe 2.5562776332 17.3481865849 1.9661059689 -0.0846793204 -0.0022407174 0.4718076681 26
Fe 4.5334836421 17.1776016406 -0.0000814263 -0.0240555090 0.3939340608 -0.0604705736 26
Fe 4.3280531059 15.5798668465 2.0000412142 1.6279114058 -0.1443186560 -0.0060973739 26
Fe 2.4736201177 15.7582442924 0.0282598287 0.0625966197 -0.0399619030 -0.3461575434 26
Fe 0.4215979507 16.0192010846 1.9493402837 1.4783919200 0.4873060278 0.2233875697 26
128
Lattice="16.5992835782 0 0 0 37.6080672432 0 0 0 2.8344272666" Properties=species:S:1:pos:R:3:force:R:3:Z:I:1 config_type=small_crack energy=-442956.39470538 pbc="T T T"
Fe 0.6781670504 0.0318208266 1.4532373985 -0.3864099811 0.0596933288 -0.5195808431 26
Fe 0.4562230095 2.0165241272 -0.0821963324 1.3888814945 -0.1676383150 0.6877616610 26
Fe 4.6490061698 0.5999927244 1.3823601176 0.6452021714 -0.7406431060 0.3263839515 26
Fe 2.7042490451 0.2454751853 -0.0057699109 -0.2879076326 -0.1704511031 -0.0770372271 26
Fe 6.7143371705 1.0450278168 -0.0318739443 -0.1778132032 -0.7780084508 0.2186194568 26
Fe 8.6547834612 1.4816288131 1.4226366192 0.7273916344 -0.6076146833 -0.2374913624 26
Fe 0.2526825942 3.9550482209 1.4791206614 2.1254427154 0.2144110732 -0.2645604628 26
Fe 2.3580809456 4.3288292285 0.0192369097 -0.6565520543 0.1346327918 -0.0738616562 26
Fe 4.3247507846 4.7812908404 1.3375619710 0.4765079039 0.2708588970 0.6856312440 26
Fe 2.4853277337 2.2943612758 1.4323521799 0.0166823532 -0.0154785622 -0.0126333781 26
Fe 4.4894687954 2.6874090719 0.0981880822 0.4638483005 -0.1178889892 -0.7342842509 26
Fe 6.5593529796 3.1825092635 1.4573374216 -0.1312641310 0.4051661871 -0.1122698408 26
Fe 8.5929727089 3.6309488689 0.0006224731 0.0628894685 0.2810335281 0.0220929851 26
Fe 6.4955021754 5.4750628773 -0.0073368833 -1.1900975933 -0.1722603892 0.0039402174 26
Fe 0.0609027714 5.9531156047 0.0463418798 1.9619492777 -0.2963076875 0.2554613247 26
Fe 3.8982936104 6.7949183926 0.0142405253 0.6943835402 -0.1287989562 -0.0237222939 26
Fe 1.9713026989 6.3254176162 1.4878817633 0.1994392757 0.0121047591 -0.2676429598 26
Fe 8.3941182715 8.2038157849 -0.0210395919 0.0830530970 0.0619674705 0.1942073356 26
Fe 6.4172747316 7.7242375834 1.4352221960 -0.3714582382 -0.0702759941 -0.1085715643 26
Fe 8.3537836723 5.9023051976 1.4025182875 1.2994998814 -0.1762787681 0.0425502337 26
Fe -0.0069501200 12.6904660219 1.4778142978 1.9381596208 0.0881909347 -0.0529063847 26
Fe 3.9978328743 12.0555832634 1.4089438702 0.5309991173 -0.3875649212 -0.0113447407 26
Fe 2.0426630190 12.4683858669 -0.0055043224 -0.1700299562 -0.0682317091 0.3205850828 26
Fe 6.3905216663 11.0456430122 -0.0740394444 -0.1579272540 0.0376947032 0.1379286905 26
Fe 8.4301685955 10.5607098818 1.4223577513 -0.0263075393 -0.0229561048 -0.1029783840 26
Fe 0.2157525081 14.7168667229 0.0279731126 2.3356238078 0.0830358706 0.4615106525 26
Fe 2.3170325773 14.4183186482 1.4984986650 0.0064488438 -0.0952779266 -0.4011439515 26
Fe 4.4791091825 13.9436936729 0.0083892779 -0.9313470549 0.1685543994 0.1140511018 26
Fe 4.5012028289 16.0244918860 1.4870667384 0.5254925832 0.0575333440 -0.3568566798 26
Fe 8.4778666369 12.8480048426 -0.0236938173 0.0322884421 0.2369491165 0.1758653345 26
Fe 6.4219889282 13.2319097533 1.3988465260 0.4199325533 0.0338347043 0.0293692103 26
Fe 6.5965586138 15.4709107585 -0.0056155376 0.0926651704 0.1559572739 0.1875636020 26
Fe 8.6733364805 15.1082695300 1.4765676916 -0.3946794239 -0.2148242497 -0.5250668083 26
Fe 0.4609255865 16.6645386818 1.4805996576 1.3399248403 0.0520358088 0.0105294435 26
Fe 0.7116162667 18.7274196282 0.0410799069 -0.9965913979 -0.0717001288 0.0217350874 26
Fe 2.4768123012 16.4738162333 0.0414235121 0.1059210129 -0.5547463509 0.1445659962 26
Fe 2.6813154749 18.4151456059 1.4575034144 0.5461465212 0.7323145279 -0.0931143423 26
Fe 4.7563205381 18.0491629416 0.0124229038 -0.0080161890 0.9855037676 0.0866091913 26
Fe 6.7969252460 17.7028504284 1.4000151156 -0.3823419799 0.4813477506 -0.0704747405 26
Fe 8.6952574944 17.2550880738 -0.0702846865 0.9371613502 0.5885532873 0.2896205023 26
Fe 10.7630800475 1.8128608772 -0.0783818170 -0.2308273171 -0.7565387013 0.4044030833 26
Fe 12.7464437860 1.8839174304 1.3825493494 0.2920836202 -0.1055605441 -0.0257930613 26
Fe 14.8779660899 2.0349377124 -0.0324748383 -1.6443142799 -0.2046493615 0.1874751561 26
Fe 10.7157189716 3.9468415350 1.4097788142 -1.0604591716 -0.2195034024 -0.1857455742 26
Fe 12.6091511115 4.1111545233 -0.0344235942 0.9658682440 -0.9343598749 0.1405417038 26
Fe 14.7465462419 3.9732128169 1.4021049654 -2.2752815323 1.2267880231 -0.2119173592 26
Fe 10.5616394417 6.0414437124 -0.0191223746 -0.8148022390 0.3480843290 0.1623243566 26
Fe 10.5021293501 8.2397980519 1.4670280833 -0.5605894426 0.1841296351 -0.2957387021 26
Fe 12.4650311517 8.3415632797 0.0228273347 0.7469428258 -0.3809625824 -0.0393587219 26
Fe 12.5296305836 6.0913262195 1.4180220184 0.8377028080 0.9802232336 -0.1166288910 26
Fe 14.6943431550 6.2001561024 -0.0258318051 -3.4798930094 0.1257416560 -0.1268978816 26
Fe 14.5931091042 8.3283336507 1.3805142772 0.0357231804 -0.4020327822 0.0954699881 26
Fe 10.5455265171 10.5018139637 0.0156215857 -0.4761098969 -0.0793507068 0.0014115363 26
Fe 10.4970516293 12.7434907734 1.4196686673 0.2730217100 -0.2383110305 -0.0694303579 26
Fe 12.5951911140 10.4483891695 1.4359791234 -0.4772370691 -0.2249526009 -0.1679771865 26
Fe 12.5713595226 12.5008822843 -0.0261438716 -0.2254529378 0.5676144709 0.2919524939 26
Fe 14.5571666755 10.4809403646 -0.0268045231 0.6454693091 0.0914086717 0.1891990815 26
Fe 14.5500455829 12.5682438370 1.4449194975 -2.3699899593 -0.3094935959 -0.5158964506 26
Fe 10.6813850135 14.9467717802 -0.0140861520 -0.0112742924 -0.5704845946 0.1849187070 26
Fe 12.7139042104 14.6277252502 1.4412029179 -0.3549517486 0.4463208253 -0.4837715307 26
Fe 14.7242434445 14.6233413794 -0.1199480830 -1.8194453071 0.0759763895 0.2268395344 26
Fe 12.7976575556 16.7812416049 -0.0526794863 0.5105529245 0.5014473586 0.3211952059 26
Fe 10.8788915891 17.0476318875 1.3726130182 -0.7785350129 0.5958845341 0.0750392219 26
Fe 14.8851635392 16.8844194317 1.4166824562 -1.5649751431 -1.2495988605 -0.2014408804 26
Fe 14.8471976578 37.5787794673 1.4569008604 0.2581257600 0.0366210100 -0.1335426436 26
Fe 14.9605873640 35.5383573515 0.0299285082 -0.0668967917 0.4067263332 -0.2677956834 26
Fe 10.7937173452 36.9154787352 1.5417231995 -0.5746063319 0.8461455432 -0.7916628144 26
Fe 12.7875104135 37.1813926184 0.0102234987 -0.0419460241 1.3785847360 0.1941939658 26
Fe 8.6938780939 36.3965419724 -0.1038650372 -0.1664052133 0.7040308378 0.6883090492 26
Fe 6.6470835131 35.9794484541 1.4922025568 -0.0730705274 0.6804982914 -0.5818103091 26
Fe 15.1305607079 33.6228763832 1.3408751880 -0.1305311091 -0.4938307192 0.4057595979 26
Fe 13.2018567504 33.2981894167 0.0269987347 -0.4414557817 -0.9202347421 -0.2624565281 26
Fe 11.1753000162 32.7483149091 1.4021730224 0.0304627010 0.1990168433 0.4597278487 26
Fe 13.0197177915 35.2686123536 1.4149976289 -0.8748064142 -0.1635230054 0.2595869186 26
Fe 10.9007910240 34.8375837367 0.0602139011 0.3757938914 -0.0824509443 -0.2900110530 26
Fe 8.9122300499 34.2513999563 1.3785671813 0.0731538311 -0.0190282288 0.2168199409 26
Fe 6.9444978568 33.8625965970 -0.0291699210 -0.4530617466 -0.5422232732 0.2610161955 26
Fe 9.1642055147 32.0406924300 0.0054312855 -0.5095926170 -0.0085178115 0.0291910328 26
Fe 15.5365642449 31.5451938556 0.0162789174 -3.0783263684 0.6672586468 -0.0545606332 26
Fe 11.4531404847 30.7418831463 0.1403137440 -0.1375443104 0.0124294896 -0.3204742682 26
Fe 13.4830519341 31.2567414652 1.4588379968 -0.0194522039 0.1389630457 0.0709861331 26
Fe 7.0621884373 29.3179102847 -0.0546000234 0.1046979386 -0.2772555474 0.4507410678 26
Fe 9.1007597330 29.8331902254 1.4936334150 0.2164607576 0.1119615654 -0.1367634660 26
Fe 6.9581773264 31.4828270274 1.5031298652 0.4725676865 0.6966378845 -0.5683770604 26
Fe 15.5178053945 24.7559557378 1.3415109406 -3.7590141502 -0.7127003444 -0.1520599940 26
Fe 11.5007721289 25.4923265162 1.4030710437 -0.6665935022 0.4184150876 0.0494739605 26
Fe 13.4118908054 25.0389768427 -0.1147923455 0.7412352314 0.6581754495 0.4423350994 26
Fe 8.9707342248 26.4977202236 0.0331803079 0.3802534719 -0.0783312639 0.0236672723 26
Fe 7.0218355789 27.0462435494 1.4800701404 -0.1205220572 -0.0706408338 -0.3336750891 26
Fe 15.1633492728 22.7988869245 -0.1070587393 -1.1393967019 0.1106410462 0.0731088368 26
Fe 13.1569042306 23.1842475924 1.3714145500 -0.2549134223 -0.8938706385 0.0921506924 26
Fe 11.1095801327 23.5822984126 0.0897672656 0.0117363198 -0.3657177336 -0.8451235292 26
Fe 10.8811524116 21.5143978428 1.3724586449 0.1284516000 0.4246448733 0.7823844703 26
Fe 7.0525326340 24.7178869408 -0.0521947872 -0.3107752914 -0.3744240071 0.4456340833 26
Fe 9.1066790375 24.2293003081 1.4010094127 -0.2501052002 0.0102471362 0.1919365363 26
Fe 8.8172207304 22.0253354108 0.0220272493 0.1344242753 0.2829441157 -0.3571811531 26
Fe 6.7716312577 22.4120804590 1.4116246545 0.4770594058 0.5271416895 0.1968110929 26
Fe 14.9696837714 20.8128639809 1.3856318364 -0.6702655533 0.1803244007 -0.0738737404 26
Fe 14.7562501831 18.8013279384 0.0229335701 0.9923400769 0.3823440368 -0.1062174612 26
Fe 12.9788935135 21.0138763252 0.0341380866 -0.2061285178 1.8024539071 0.0256920169 26
Fe 12.8103493678 19.2113036839 1.5417497583 -0.7851183255 -1.9886298842 -0.6437597819 26
Fe 10.7644362090 19.5549901904 0.0844090169 -0.5858500282 -1.4513734703 -0.6052919477 26
Fe 8.6602081071 19.8953767594 1.2931987257 0.0821550102 -0.7167608894 0.6432555883 26
Fe 6.6869798912 20.2994863181 -0.0365715415 -0.0216355857 -0.7818805338 -0.0162144122 26
Fe 4.5848316795 35.8432164738 0.0181778754 0.8308356455 -0.0731376332 -0.2086268599 26
Fe 2.6565825424 35.6896780805 1.3326568827 -0.0959356151 -0.0353912508 0.5996681712 26
Fe 0.6452124927 35.6541921321 -0.0517499264 0.4072354118 -0.7335250038 0.1950020639 26
Fe 4.8511970632 33.5421739863 1.4751982507 0.0495256397 0.6741515204 -0.3828333179 26
Fe 2.8027010559 33.5712907897 -0.0012632054 0.0249296845 -0.1861587506 0.0964452080 26
Fe 0.7632549780 33.4688665703 1.4651756033 0.7435705654 -0.3029547635 -0.1590300006 26
Fe 4.9390985694 31.4443631674 -0.0416193837 -0.2668490027 -0.2805465610 0.5394963599 26
Fe 4.9929366858 29.2360907560 1.4224756062 -0.0146892331 0.1147656117 -0.1216523146 26
Fe 2.9193641408 29.2951211283 0.0107812346 0.3624673436 -0.4955852408 0.0147763936 26
Fe 2.8412130538 31.4289490727 1.4398982142 0.2144488685 -0.0279903271 -0.2503440557 26
Fe 0.8487412884 31.3091238244 -0.0189879204 3.6975367321 -0.2286259376 0.2210473506 26
Fe 0.9712008431 29.1891280629 1.4272512201 -0.5629281191 0.2811510276 -0.1658917638 26
Fe 4.9249526600 27.0248835913 -0.0118220097 0.6551518309 0.0630169953 0.4416990082 26
Fe 4.9162363762 24.8123020059 1.5352212601 0.2412166354 0.4080152278 -0.5954183929 26
Fe 2.9651250457 27.0483898368 1.4717538993 -0.5494892139 0.3045059107 -0.4134513136 26
Fe 2.8880263533 24.9273665797 0.0311601751 -0.3290131627 -0.2487152612 -0.0766204511 26
Fe 0.9014390340 27.0780477768 -0.0590419917 -0.1283387285 -0.3828613430 0.2481629880 26
Fe 0.7599666599 24.9447792282 1.3204912678 4.4015889101 0.4378462084 0.3763772750 26
Fe 4.7734775576 22.7285375008 0.0979739514 0.2229342840 -0.5103431224 -0.6810971016 26
Fe 2.7855340768 22.7562118263 1.3680216564 -0.2142997444 0.0201895966 0.6167780990 26
Fe 0.7337049334 22.7375293327 0.0205930712 1.4369164079 1.0619285577 -0.0851092091 26
Fe 2.7889004116 20.5658417423 -0.0178442298 -0.6437754656 0.3122307936 0.1750520943 26
Fe 4.7310713678 20.4795022287 1.4332651405 -0.0101005833 -0.2897449437 -0.1814112065 26
Fe 0.5943605875 20.7952405215 1.4333232380 1.5357378305 -0.3692810271 0.1238372391 26
128
Lattice="16.2852698230 0 0 0 28.0185461661 0 0 0 4.0084400289" Properties=species:S:1:pos:R:3:force:R:3:Z:I:1 config_type=small_crack energy=-442954.06069637 pbc="T T T"
Fe 0.0588305372 2.8269029901 2.0045131493 2.4435991331 -1.6270732258 0.0000848464 26
Fe 0.2396002893 1.4028115140 0.0002784781 2.0283020237 -1.0110703147 0.0001948897 26
Fe 0.3894899127 0.0000000000 2.0044822073 0.5282256671 -0.8689967469 -0.0009271402 26
Fe 2.1444231594 3.1746342140 0.0002410219 0.0788704245 0.0054276012 0.0000233970 26
Fe 4.3340753987 2.1205131262 0.0001807664 0.0709336826 0.1141027810 0.0000192833 26
Fe 2.2854633672 1.7342525825 2.0044431226 0.1673418666 0.0525613425 0.0000830467 26
Fe 4.4860251088 0.6814001172 2.0043926383 -0.3669883734 -0.7894118126 -0.0001848624 26
Fe 2.4418133572 0.3223506308 0.0002149655 -0.1737917389 -0.5551523283 -0.0004571423 26
Fe 6.3722681146 2.5445522389 2.0043421540 0.0175760691 0.0931097144 -0.0000033424 26
Fe 6.5174382668 1.0455420075 0.0001253965 -0.3005754635 -0.7379807275 -0.0000663345 26
Fe 8.5098254043 1.3553220386 2.0043030693 -0.4400182773 -0.6650678089 0.0000280250 26
Fe 8.3801002019 2.9225528939 0.0000765407 0.0871416670 0.1130884804 -0.0000128555 26
Fe 0.0000000000 4.2184450974 0.0002719640 1.2460360813 -0.8616086787 0.0002113448 26
Fe 4.0419241722 5.0396363423 0.0002100799 -0.2312281523 -0.2336149084 -0.0001092719 26
Fe 1.7859127154 4.5086046354 2.0044724361 0.5062848913 0.1467308661 0.0000326530 26
Fe 4.1618944979 3.6021339465 2.0044121806 -0.3535263283 0.0308283120 -0.0000295677 26
Fe 5.8173166033 5.5130670499 2.0043128405 0.4176005617 0.0432012373 0.0001421821 26
Fe 6.2298273735 4.0418052897 0.0001205109 -0.1804791812 0.1510662621 -0.0000228828 26
Fe 8.1422701214 6.3449300321 0.0000407131 -0.2332325852 -0.2446511166 -0.0001295837 26
Fe 8.1647079662 4.5789846860 2.0042818985 0.0506893215 0.0237346352 0.0000262253 26
Fe 0.0000000000 10.2808729254 2.0038926805 1.2471563115 0.8620745628 -0.0001843482 26
Fe 4.1618944979 10.8971824478 4.0081941213 -0.3540120099 -0.0304688716 0.0000496223 26
Fe 4.0419241722 9.4596816805 2.0039627072 -0.2319269785 0.2337398641 0.0001041297 26
Fe 1.7859127154 9.9907117589 4.0081354944 0.5060475784 -0.1471288730 -0.0000375381 26
Fe 6.2298273735 10.4575127331 2.0040522762 -0.1807710016 -0.1508130084 0.0000056564 26
Fe 5.8173166033 8.9862412018 4.0082950900 0.4173570782 -0.0429143020 -0.0001365256 26
Fe 8.1422701214 8.1543896192 2.0041223028 -0.2334087059 0.2454728415 0.0001429534 26
Fe 8.1647079662 9.9203219371 4.0083244035 0.0506114170 -0.0232926624 -0.0000326530 26
Fe 0.0588305372 11.6724134042 4.0080947812 2.4447119070 1.6277640815 -0.0001015586 26
Fe 0.2396002893 13.0965048803 2.0038926805 2.0289761672 1.0105915750 -0.0002092879 26
Fe 0.3894899127 14.4993163943 4.0081240947 0.5283763338 0.8681500823 0.0009101709 26
Fe 2.1444231594 11.3246838088 2.0039317652 0.0786482811 -0.0052177991 -0.0000848464 26
Fe 4.3340753987 12.3788048966 2.0039920207 0.0705469885 -0.1145105582 -0.0000552787 26
Fe 2.2854633672 12.7650654403 4.0081550367 0.1669865400 -0.0532527125 0.0000154266 26
Fe 2.4418133572 14.1769673920 2.0039529360 -0.1741007857 0.5543722552 0.0004329740 26
Fe 4.4860251088 13.8179162770 4.0082152922 -0.3674241756 0.7887584950 0.0001838340 26
Fe 6.3722681146 11.9547641553 4.0082641480 0.0172569950 -0.0933915074 0.0000046280 26
Fe 6.5174382668 13.4537760153 2.0040425050 -0.3009048220 0.7373577490 0.0000786758 26
Fe 8.3801002019 11.5767635004 2.0040929893 0.0870799605 -0.1132771994 0.0000169693 26
Fe 8.5098254043 13.1439959842 4.0083048612 -0.4401100657 0.6644895675 -0.0000339386 26
Fe 10.4892120108 1.6173715724 0.0000423417 -0.5932488951 -0.5956778173 0.0001925757 26
Fe 12.4727741605 1.7938615556 2.0042330426 -0.8176664492 -0.2508055690 0.0005198773 26
Fe 10.3429914586 3.2176631539 2.0042525850 0.0346363746 0.0572824042 -0.0000303390 26
Fe 12.3607640747 3.3468932841 0.0000081426 -0.1345309761 0.0724007547 -0.0000077133 26
Fe 14.4835978519 1.9070425523 0.0000032570 -2.4759809063 1.3675418430 0.0009867898 26
Fe 10.2232018994 4.8042848799 0.0000162852 -0.0310478843 0.0155482391 0.0000305961 26
Fe 10.1182824200 6.4194449127 2.0042118718 -0.0148982639 0.0683155271 -0.0000033424 26
Fe 12.2681350884 4.9097857434 2.0042118718 -0.0555181125 0.1167191368 -0.0000066849 26
Fe 12.2018540402 6.4725316353 -0.0000179137 0.1450635049 0.0683510083 -0.0000308533 26
Fe 14.3195074732 4.9685951098 -0.0000130282 -2.9505941634 0.8010825693 -0.0002900206 26
Fe 14.3945174260 3.4401345964 2.0042118718 -2.5217211091 1.4531537030 -0.0003609830 26
Fe 14.2813266581 6.4900822706 2.0042021006 -0.1335747824 -0.1078915073 -0.0001948897 26
Fe 10.1182824200 8.0798698530 -0.0000407131 -0.0148429852 -0.0673642185 -0.0000172264 26
Fe 10.2232018994 9.6950315144 2.0041516163 -0.0309152153 -0.0150317042 -0.0000215973 26
Fe 12.2018540402 8.0267798734 2.0041825583 0.1451707200 -0.0672261502 0.0000483368 26
Fe 12.2681350884 9.5895306509 -0.0000472272 -0.0551586721 -0.1160269955 0.0000249397 26
Fe 14.2813266581 8.0092292381 -0.0000293134 -0.1332505662 0.1092518785 0.0001789489 26
Fe 14.3945174260 11.0591834264 -0.0000455987 -2.5223921673 -1.4536270433 0.0003661253 26
Fe 14.3195074732 9.5307115133 2.0041825583 -2.9511274105 -0.8004323370 0.0002910490 26
Fe 12.3607640747 11.1524231102 2.0041630160 -0.1340380954 -0.0724344362 -0.0000228828 26
Fe 10.3429914586 11.2816532404 -0.0000830548 0.0348163519 -0.0573690505 0.0000174835 26
Fe 10.4892120108 12.8819448219 2.0041223028 -0.5930797164 0.5950820924 -0.0001748351 26
Fe 12.4727741605 12.7054450675 -0.0000667696 -0.8173445469 0.2502841490 -0.0005016225 26
Fe 14.4835978519 12.5922754705 2.0041630160 -2.4762323603 -1.3685582005 -0.0009646783 26
Fe 14.8142572274 25.6816897443 2.0045131493 -2.4431463616 1.6272884272 0.0000861320 26
Fe 14.6334874753 27.1057812204 0.0002784781 -2.0275900849 1.0104612200 0.0001951468 26
Fe 14.4835978519 28.5085943630 2.0044822073 -0.5274522789 0.8681534247 -0.0009263689 26
Fe 12.7286646052 25.3339601490 0.0002410219 -0.0784397645 -0.0053995762 0.0000221115 26
Fe 10.5390123659 26.3880812367 0.0001807664 -0.0712319307 -0.1144118278 0.0000200546 26
Fe 12.5876243974 26.7743417805 2.0044431226 -0.1669173773 -0.0531033313 0.0000833038 26
Fe 10.3870626558 27.8271926172 2.0043926383 0.3665957658 0.7886299398 -0.0001848624 26
Fe 12.4312744074 28.1862437321 0.0002149655 0.1739838004 0.5543450015 -0.0004573995 26
Fe 8.5008196500 25.9640404955 2.0043421540 -0.0184494732 -0.0932493253 -0.0000030853 26
Fe 8.3556494978 27.4630523554 0.0001253965 0.2997640230 0.7374004293 -0.0000663345 26
Fe 6.3632607318 27.1532723243 2.0043030693 0.4393898994 0.6647502775 0.0000275108 26
Fe 6.4929875627 25.5860398405 0.0000765407 -0.0880430962 -0.1131036499 -0.0000123413 26
Fe 14.8730877647 24.2901492655 0.0002719640 -1.2457946546 0.8619884308 0.0002118590 26
Fe 10.8311619639 23.4689580206 0.0002100799 0.2309594719 0.2345135094 -0.0001103004 26
Fe 13.0871750492 23.9999880990 2.0044724361 -0.5057115351 -0.1461899057 0.0000326530 26
Fe 10.7111932667 24.9064587879 2.0044121806 0.3531884852 -0.0305323779 -0.0000313675 26
Fe 9.0557711613 22.9955273131 2.0043128405 -0.4183184141 -0.0423514873 0.0001416678 26
Fe 8.6432603911 24.4667890732 0.0001205109 0.1795548692 -0.1506569423 -0.0000231399 26
Fe 6.7308176432 22.1636643308 0.0000407131 0.2325453290 0.2456096243 -0.0001306121 26