1 
Lattice="3.0613761977 0.2027234064 0.4784211531 0.2302413249 3.2978092096 0.0402739114 1.5699217820 1.9467514502 1.1444529042" Properties=species:S:1:pos:R:3:force:R:3:Z:I:1 config_type=prim_random energy=-3458.4324254198 pbc="T T T" virial="3.2809605309 -2.3369893997 -0.4177565566 -2.3369893997 4.4853086766 2.2541959459 -0.4177565566 2.2541959459 15.7637346051"
Fe 0.000000 0.000000 0.000000 0.000000 0.000000 0.000000 26
1 
Lattice="3.0857981829 0.0835841662 0.3493976589 0.3334202061 3.2980314446 -0.0198576469 1.6622298182 1.8731427575 1.2178373019" Properties=species:S:1:pos:R:3:force:R:3:Z:I:1 config_type=prim_random energy=-3460.2359515946 pbc="T T T" virial="0.2972631900 -1.5764703514 -0.0276013145 -1.5764703514 0.9518100630 0.0245345018 -0.0276013145 0.0245345018 6.0443416375"
Fe 0.000000 0.000000 0.000000 0.000000 0.000000 0.000000 26
1 
Lattice="2.8386544305 0.4012301636 0.4793206139 0.4911594587 3.0235241103 0.1116246394 1.9137886449 1.6690707416 1.3421552709" Properties=species:S:1:pos:R:3:force:R:3:Z:I:1 config_type=prim_random energy=-3458.0013035942 pbc="T T T" virial="7.0458131458 -7.1256632434 -2.3541418939 -7.1256632434 11.0811885881 4.1041092296 -2.3541418939 4.1041092296 11.2146075345"
Fe 0.000000 0.000000 0.000000 0.000000 0.000000 0.000000 26
1 
Lattice="3.1861583229 0.0175981852 0.3116898883 0.0450983510 3.1575184529 0.5077030024 1.5668243466 1.6254678899 1.5843296907" Properties=species:S:1:pos:R:3:force:R:3:Z:I:1 config_type=prim_random energy=-3460.6465266469 pbc="T T T" virial="-0.0781469986 -0.1295044562 -0.3214203069 -0.1295044562 -0.4028509750 -0.6559861289 -0.3214203069 -0.6559861289 1.5535332895"
Fe 0.000000 0.000000 0.000000 0.000000 0.000000 0.000000 26
1 
Lattice="2.8449401341 0.3375984757 0.5166258974 0.1979787455 2.8636585691 0.3387483640 1.4463295217 1.4214861119 1.6143325711" Properties=species:S:1:pos:R:3:force:R:3:Z:I:1 config_type=prim_random energy=-3460.2110346727 pbc="T T T" virial="3.5762454808 -3.3194383112 -1.9565253299 -3.3194383112 2.6605801284 0.5661237670 -1.9565253299 0.5661237670 4.7155075297"
Fe 0.000000 0.000000 0.000000 0.000000 0.000000 0.000000 26
1 
Lattice="2.8983302333 0.5084216851 -0.0079420657 0.3710112937 3.0624623363 0.5003030635 1.3596528267 1.4222683206 1.1468472483" Properties=species:S:1:pos:R:3:force:R:3:Z:I:1 config_type=prim_random energy=-3458.5973009765 pbc="T T T" virial="6.5832536009 -3.3065840606 -2.1528652787 -3.3065840606 8.9198534529 -2.8783132907 -2.1528652787 -2.8783132907 10.1736266932"
Fe 0.000000 0.000000 0.000000 0.000000 0.000000 0.000000 26
1 
Lattice="3.2163228287 0.1819877055 0.1169131185 0.0137099231 3.2401419263 0.3012089136 1.4307802171 1.9397300873 1.2531636980" Properties=species:S:1:pos:R:3:force:R:3:Z:I:1 config_type=prim_random energy=-3460.0435265505 pbc="T T T" virial="1.9635772964 -2.2747147429 0.7035990445 -2.2747147429 1.0705958024 -0.7850314315 0.7035990445 -0.7850314315 5.5453822134"
Fe 0.000000 0.000000 0.000000 0.000000 0.000000 0.000000 26
1 
Lattice="3.0376431932 0.3048972253 0.1572067567 0.4108236307 3.3066120747 0.4725648680 1.5239695019 1.4167102658 1.2611022944" Properties=species:S:1:pos:R:3:force:R:3:Z:I:1 config_type=prim_random energy=-3459.7254670814 pbc="T T T" virial="2.3040916657 -2.2101753845 -2.3719940087 -2.2101753845 3.3476956216 -1.3483753640 -2.3719940087 -1.3483753640 7.3559158727"
Fe 0.000000 0.000000 0.000000 0.000000 0.000000 0.000000 26
1 
Lattice="2.8054654819 0.0908479292 0.2206383276 0.4680642086 3.2490424768 0.4954655614 1.4003943908 1.7226024265 1.4076614368" Properties=species:S:1:pos:R:3:force:R:3:Z:I:1 config_type=prim_random energy=-3459.6324589721 pbc="T T T" virial="1.7513194797 -3.5772182206 0.1102226574 -3.5772182206 5.5596460223 -2.6939540265 0.1102226574 -2.6939540265 7.4544747488"
Fe 0.000000 0.000000 0.000000 0.000000 0.000000 0.000000 26
1 
Lattice="3.2105921726 0.1375320723 0.4743409353 0.2433049847 3.3564627704 0.4563450526 1.4092432872 1.8187113390 1.6089163771" Properties=species:S:1:pos:R:3:force:R:3:Z:I:1 config_type=prim_random energy=-3460.4307132805 pbc="T T T" virial="-0.8962768916 -1.5847207860 0.3597396012 -1.5847207860 -0.1435979387 -1.4229112772 0.3597396012 -1.4229112772 1.4704359110"
Fe 0.000000 0.000000 0.000000 0.000000 0.000000 0.000000 26
1 
Lattice="2.8692046653 0.0056523929 0.1835101395 0.2127985050 3.0893202303 -0.0269681818 1.8286181068 1.4757575606 1.0991920401" Properties=species:S:1:pos:R:3:force:R:3:Z:I:1 config_type=prim_random energy=-3459.4626538008 pbc="T T T" virial="3.6229134577 -2.2265261128 -0.8754040978 -2.2265261128 6.9331261266 1.4313917727 -0.8754040978 1.4313917727 8.7522072193"
Fe 0.000000 0.000000 0.000000 0.000000 0.000000 0.000000 26
1 
Lattice="2.7906789834 0.4599625934 0.4931254916 0.2784753243 3.3442131445 0.3332539666 1.9002016232 1.4704792520 1.6648946252" Properties=species:S:1:pos:R:3:force:R:3:Z:I:1 config_type=prim_random energy=-3458.7391117542 pbc="T T T" virial="2.5321946846 -4.6899294106 -5.1618202368 -4.6899294106 3.6537354584 5.7895672017 -5.1618202368 5.7895672017 5.7253129109"
Fe 0.000000 0.000000 0.000000 0.000000 0.000000 0.000000 26
1 
Lattice="2.8212125184 0.2009229574 0.4241881656 0.3582167500 2.8414898556 0.3904888900 1.5187839940 1.8625349089 1.6324572018" Properties=species:S:1:pos:R:3:force:R:3:Z:I:1 config_type=prim_random energy=-3459.5406790488 pbc="T T T" virial="6.2731183353 -1.8576272476 1.8156963389 -1.8576272476 3.4956334111 -3.6784462489 1.8156963389 -3.6784462489 5.1807889779"
Fe 0.000000 0.000000 0.000000 0.000000 0.000000 0.000000 26
1 
Lattice="3.3255366254 0.3982024892 0.3162474278 -0.0346141630 3.2936979200 0.2375051690 1.8637114520 1.5261283236 1.3019184381" Properties=species:S:1:pos:R:3:force:R:3:Z:I:1 config_type=prim_random energy=-3459.8775170954 pbc="T T T" virial="1.8842583876 -2.9764805243 -1.4145622303 -2.9764805243 0.6953539200 0.3010774449 -1.4145622303 0.3010774449 4.5236777257"
Fe 0.000000 0.000000 0.000000 0.000000 0.000000 0.000000 26
1 
Lattice="2.9282053882 0.1461814964 0.3435372911 0.3365471700 3.1317129617 0.3284323716 1.4751221712 1.9020538497 1.4673232270" Properties=species:S:1:pos:R:3:force:R:3:Z:I:1 config_type=prim_random energy=-3459.9490631763 pbc="T T T" virial="2.7530874548 -2.8110856573 1.6843966412 -2.8110856573 2.7717452072 -2.7834051251 1.6843966412 -2.7834051251 4.7259493354"
Fe 0.000000 0.000000 0.000000 0.000000 0.000000 0.000000 26
1 
Lattice="2.9919829977 0.3947452891 0.1208706595 0.1355706146 3.3438607171 0.0213416647 1.8391646219 1.4626742184 1.2018323207" Properties=species:S:1:pos:R:3:force:R:3:Z:I:1 config_type=prim_random energy=-3459.5143576111 pbc="T T T" virial="2.4312378884 -3.7096306566 -2.8009424030 -3.7096306566 1.6761379655 2.6758661993 -2.8009424030 2.6758661993 2.6905322143"
Fe 0.000000 0.000000 0.000000 0.000000 0.000000 0.000000 26
1 
Lattice="3.1349578024 0.3504767300 0.1862651211 0.5144955800 2.8779217311 0.4560959583 1.8865627930 1.9441439795 1.5084678230" Properties=species:S:1:pos:R:3:force:R:3:Z:I:1 config_type=prim_random energy=-3459.6703376296 pbc="T T T" virial="5.5732749915 -3.1349032657 2.3406006288 -3.1349032657 2.2172535268 -2.2195936944 2.3406006288 -2.2195936944 4.0198275112"
Fe 0.000000 0.000000 0.000000 0.000000 0.000000 0.000000 26
1 
Lattice="2.7723643935 0.2787626006 0.2016695232 -0.0689803691 2.9451058542 0.4195281458 1.5710997038 1.5172384728 1.5656521208" Properties=species:S:1:pos:R:3:force:R:3:Z:I:1 config_type=prim_random energy=-3460.5491894783 pbc="T T T" virial="1.8260062674 -0.5729496445 -1.8548269189 -0.5729496445 2.7209752607 0.0004718508 -1.8548269189 0.0004718508 2.8393437714"
Fe 0.000000 0.000000 0.000000 0.000000 0.000000 0.000000 26
1 
Lattice="3.1462230843 0.4350794095 0.2241100110 0.1651889944 3.0373664663 -0.0619458729 1.4911777372 1.5916730156 1.1437331907" Properties=species:S:1:pos:R:3:force:R:3:Z:I:1 config_type=prim_random energy=-3460.1125710887 pbc="T T T" virial="2.4984993837 -2.5501864261 -0.9681710769 -2.5501864261 1.1057761651 -0.2754993999 -0.9681710769 -0.2754993999 6.2218883749"
Fe 0.000000 0.000000 0.000000 0.000000 0.000000 0.000000 26
1 
Lattice="3.2300089964 0.2923259904 0.3099223691 0.3551594953 2.7703691700 0.4076260908 1.4666961196 1.6664888112 1.4686737167" Properties=species:S:1:pos:R:3:force:R:3:Z:I:1 config_type=prim_random energy=-3459.3871824774 pbc="T T T" virial="4.1278643711 -4.5962000965 2.7748208118 -4.5962000965 3.5460353821 -3.0825598901 2.7748208118 -3.0825598901 5.9879892548"
Fe 0.000000 0.000000 0.000000 0.000000 0.000000 0.000000 26
1 
Lattice="2.8177062725 0.4268880529 0.3944667946 0.0739137942 3.3070575377 0.4908271819 1.8072240614 1.3554295542 1.4870824765" Properties=species:S:1:pos:R:3:force:R:3:Z:I:1 config_type=prim_random energy=-3458.4973859372 pbc="T T T" virial="5.9927369657 -6.2354282744 -6.0485315525 -6.2354282744 4.5985239498 5.2297122602 -6.0485315525 5.2297122602 7.2537368488"
Fe 0.000000 0.000000 0.000000 0.000000 0.000000 0.000000 26
1 
Lattice="2.9444707758 0.4478256944 0.0864705417 0.4180328221 2.9573813184 0.0653601806 1.6836533446 1.5153961691 1.1093949119" Properties=species:S:1:pos:R:3:force:R:3:Z:I:1 config_type=prim_random energy=-3458.8213724544 pbc="T T T" virial="6.0303988255 -5.9393070256 -2.3616461665 -5.9393070256 5.1860516548 0.6759774030 -2.3616461665 0.6759774030 11.0587229605"
Fe 0.000000 0.000000 0.000000 0.000000 0.000000 0.000000 26
1 
Lattice="3.1035722694 0.4933818815 0.3989002538 0.0707836106 2.7699500582 0.5175075463 1.6609202391 1.8243513441 1.3776179051" Properties=species:S:1:pos:R:3:force:R:3:Z:I:1 config_type=prim_random energy=-3457.7366102789 pbc="T T T" virial="10.7730788365 -1.9092524777 1.8188141299 -1.9092524777 7.7417403294 1.4436438336 1.8188141299 1.4436438336 17.0191202212"
Fe 0.000000 0.000000 0.000000 0.000000 0.000000 0.000000 26
1 
Lattice="2.7949471610 0.4357515613 0.4331588751 0.3919820968 3.0624230884 0.4034488666 1.4884622702 1.6417827409 1.6203229688" Properties=species:S:1:pos:R:3:force:R:3:Z:I:1 config_type=prim_random energy=-3460.1189774653 pbc="T T T" virial="2.4427558573 -4.1061157631 -0.8585837385 -4.1061157631 2.9396005489 -0.4567303239 -0.8585837385 -0.4567303239 4.6806435981"
Fe 0.000000 0.000000 0.000000 0.000000 0.000000 0.000000 26
1 
Lattice="2.9662336845 -0.0279732878 0.0633701190 0.3465091640 3.0502514606 0.2063549214 1.8200558069 1.3567638033 1.2217277110" Properties=species:S:1:pos:R:3:force:R:3:Z:I:1 config_type=prim_random energy=-3460.2063770358 pbc="T T T" virial="1.7451467841 -2.0785757531 -0.9913129105 -2.0785757531 2.9316873021 1.0064332305 -0.9913129105 1.0064332305 6.0120683585"
Fe 0.000000 0.000000 0.000000 0.000000 0.000000 0.000000 26
1 
Lattice="3.1711647401 0.2781154106 0.4367943019 0.3077343564 2.9297340230 -0.0097615922 1.5679597720 1.5649779558 1.1242186095" Properties=species:S:1:pos:R:3:force:R:3:Z:I:1 config_type=prim_random energy=-3458.3356322068 pbc="T T T" virial="5.8630568453 -3.8788588496 -2.3125508371 -3.8788588496 4.1894447565 -1.1593970634 -2.3125508371 -1.1593970634 16.9923246628"
Fe 0.000000 0.000000 0.000000 0.000000 0.000000 0.000000 26
1 
Lattice="3.2427614866 0.3790377229 -0.0133108530 0.0608799305 3.1124574747 0.3175733815 1.7298101622 1.6241754674 1.0771343408" Properties=species:S:1:pos:R:3:force:R:3:Z:I:1 config_type=prim_random energy=-3458.9104267492 pbc="T T T" virial="2.9456999800 -2.3201249560 0.2994389953 -2.3201249560 2.0785758218 -1.1069374645 0.2994389953 -1.1069374645 13.9895926713"
Fe 0.000000 0.000000 0.000000 0.000000 0.000000 0.000000 26
1 
Lattice="3.0897413864 0.3644364309 0.4940268491 0.4369967327 3.1037185531 0.1822701927 1.7417748567 1.7326772552 1.4803259201" Properties=species:S:1:pos:R:3:force:R:3:Z:I:1 config_type=prim_random energy=-3460.1397815223 pbc="T T T" virial="1.4485112036 -3.5172687765 -0.8965892437 -3.5172687765 1.6560733792 0.2725834449 -0.8965892437 0.2725834449 4.4881637913"
Fe 0.000000 0.000000 0.000000 0.000000 0.000000 0.000000 26
1 
Lattice="3.3081364818 0.4827677233 0.4227616865 0.2664299036 2.8643573498 0.2992045828 1.4362156958 1.8660404842 1.2852385258" Properties=species:S:1:pos:R:3:force:R:3:Z:I:1 config_type=prim_random energy=-3458.1037246661 pbc="T T T" virial="8.0576798794 -6.9353174899 1.3189416742 -6.9353174899 5.4332120297 -2.2849225506 1.3189416742 -2.2849225506 12.1247036419"
Fe 0.000000 0.000000 0.000000 0.000000 0.000000 0.000000 26
1 
Lattice="2.8402540029 0.4115283760 0.3919795109 0.0860132685 3.2765827024 0.4297361351 1.5767322675 1.3734316014 1.5346279108" Properties=species:S:1:pos:R:3:force:R:3:Z:I:1 config_type=prim_random energy=-3459.7702068177 pbc="T T T" virial="2.7563279391 -3.1208726092 -3.2177152174 -3.1208726092 1.3898309134 2.3836831620 -3.2177152174 2.3836831620 3.8486468027"
Fe 0.000000 0.000000 0.000000 0.000000 0.000000 0.000000 26
1 
Lattice="3.1230345609 -0.0483886049 0.4366927310 0.2311223701 3.1503053858 0.0058628962 1.5334043935 1.4644309991 1.5478802911" Properties=species:S:1:pos:R:3:force:R:3:Z:I:1 config_type=prim_random energy=-3460.7478221199 pbc="T T T" virial="-1.3307224833 -0.4926807522 -0.3101834076 -0.4926807522 -1.3748952882 0.2765151855 -0.3101834076 0.2765151855 -0.5936489022"
Fe 0.000000 0.000000 0.000000 0.000000 0.000000 0.000000 26
1 
Lattice="2.9708796981 0.1582863786 -0.0168422680 0.1988107619 2.9495866204 0.1151825489 1.8357268940 1.4820214131 1.1546935243" Properties=species:S:1:pos:R:3:force:R:3:Z:I:1 config_type=prim_random energy=-3460.1478385416 pbc="T T T" virial="2.5478355548 -2.2143976927 -1.4165323376 -2.2143976927 3.4454919369 1.2927348526 -1.4165323376 1.2927348526 5.8960732984"
Fe 0.000000 0.000000 0.000000 0.000000 0.000000 0.000000 26
1 
Lattice="3.2205600844 -0.0137400909 -0.0400607715 0.3706700349 2.9564127941 0.2638155440 1.4554157538 1.7551887231 1.2314773936" Properties=species:S:1:pos:R:3:force:R:3:Z:I:1 config_type=prim_random energy=-3459.4833182634 pbc="T T T" virial="2.5155083434 -4.1858671908 2.4668399024 -4.1858671908 3.5383462603 -2.7095625522 2.4668399024 -2.7095625522 3.0682563970"
Fe 0.000000 0.000000 0.000000 0.000000 0.000000 0.000000 26
1 
Lattice="3.0418550727 0.4842076551 0.0132817438 0.1235584117 3.0609398790 0.5099548946 1.5122029215 1.5331943603 1.2815989525" Properties=species:S:1:pos:R:3:force:R:3:Z:I:1 config_type=prim_random energy=-3459.8531697078 pbc="T T T" virial="2.4458797929 -3.0753384486 -0.5601291928 -3.0753384486 2.2845815744 -1.5534978482 -0.5601291928 -1.5534978482 8.0071528597"
Fe 0.000000 0.000000 0.000000 0.000000 0.000000 0.000000 26
1 
Lattice="3.0704864687 0.1404663301 0.3439594102 0.3544628376 3.0390380442 0.4032685160 1.5163256214 1.6594023440 1.5634920723" Properties=species:S:1:pos:R:3:force:R:3:Z:I:1 config_type=prim_random energy=-3460.4262050341 pbc="T T T" virial="0.7700840038 -2.3638834838 0.8628682954 -2.3638834838 1.2932316581 -1.7703304327 0.8628682954 -1.7703304327 2.7908654201"
Fe 0.000000 0.000000 0.000000 0.000000 0.000000 0.000000 26
1 
Lattice="2.8083190667 0.2821782153 0.3723942778 -0.0306015480 3.2776936901 -0.0124979808 1.5410722087 1.3984728097 1.5336559809" Properties=species:S:1:pos:R:3:force:R:3:Z:I:1 config_type=prim_random energy=-3460.1173896809 pbc="T T T" virial="1.4094134910 -2.4481962538 -2.9078523004 -2.4481962538 0.6259050235 2.8693475539 -2.9078523004 2.8693475539 1.2600836079"
Fe 0.000000 0.000000 0.000000 0.000000 0.000000 0.000000 26
1 
Lattice="3.3179058326 -0.0631404214 0.2546285351 0.2823762391 3.0163488308 0.4016943619 1.6656710092 1.4502826601 1.3998794899" Properties=species:S:1:pos:R:3:force:R:3:Z:I:1 config_type=prim_random energy=-3460.3703986991 pbc="T T T" virial="0.6064855979 -1.3098713764 -0.2358044307 -1.3098713764 0.2904107206 -0.7502168682 -0.2358044307 -0.7502168682 5.2574843945"
Fe 0.000000 0.000000 0.000000 0.000000 0.000000 0.000000 26
1 
Lattice="3.1813416894 0.2703969853 0.3264758758 0.5047902509 3.3260915344 0.4862106884 1.8011456115 1.7776138524 1.2067247776" Properties=species:S:1:pos:R:3:force:R:3:Z:I:1 config_type=prim_random energy=-3454.9394581667 pbc="T T T" virial="5.4108303777 -5.9757747567 -1.9131945133 -5.9757747567 6.9449163587 -0.7503546002 -1.9131945133 -0.7503546002 38.1234725341"
Fe 0.000000 0.000000 0.000000 0.000000 0.000000 0.000000 26
1 
Lattice="2.9941793252 0.1943497106 0.4929469568 0.3306097900 2.9756006167 0.4809817820 1.5222074075 1.8501961097 1.6168098263" Properties=species:S:1:pos:R:3:force:R:3:Z:I:1 config_type=prim_random energy=-3459.7574703925 pbc="T T T" virial="4.4079349902 -2.7378212571 1.7435576166 -2.7378212571 2.8906673550 -2.6765019885 1.7435576166 -2.6765019885 5.0753403471"
Fe 0.000000 0.000000 0.000000 0.000000 0.000000 0.000000 26
1 
Lattice="3.1323639281 -0.0016448216 0.0627883259 0.1182673776 3.0286524390 0.4978546235 1.3848270595 1.8530184991 1.4358823242" Properties=species:S:1:pos:R:3:force:R:3:Z:I:1 config_type=prim_random energy=-3459.7846813703 pbc="T T T" virial="3.3672077469 -2.2456937580 1.4282808240 -2.2456937580 2.0613314709 -2.2292371358 1.4282808240 -2.2292371358 1.9021064337"
Fe 0.000000 0.000000 0.000000 0.000000 0.000000 0.000000 26
1 
Lattice="3.3456049097 0.3952226042 0.0151735294 0.2133659670 2.9740420961 0.4654237604 1.5284501064 1.5956832608 1.2894468038" Properties=species:S:1:pos:R:3:force:R:3:Z:I:1 config_type=prim_random energy=-3459.8361084409 pbc="T T T" virial="2.6880482179 -3.5786029433 0.6641727656 -3.5786029433 2.0965910346 -2.1775034369 0.6641727656 -2.1775034369 6.1813236100"
Fe 0.000000 0.000000 0.000000 0.000000 0.000000 0.000000 26
1 
Lattice="2.9844218499 0.2994233156 0.0216502628 0.2259330010 3.2424403125 0.1528266201 1.3973537985 1.7490730872 1.1475449188" Properties=species:S:1:pos:R:3:force:R:3:Z:I:1 config_type=prim_random energy=-3460.0557788852 pbc="T T T" virial="1.2713465145 -2.8479008840 0.0854222242 -2.8479008840 2.7656264846 -1.4002293330 0.0854222242 -1.4002293330 6.4702322707"
Fe 0.000000 0.000000 0.000000 0.000000 0.000000 0.000000 26
1 
Lattice="3.1415492369 0.3591574712 0.0850825905 0.1283355960 3.0747180609 0.2117005925 1.6233383759 1.6397140385 1.1015377103" Properties=species:S:1:pos:R:3:force:R:3:Z:I:1 config_type=prim_random energy=-3459.0455753633 pbc="T T T" virial="3.3666716124 -2.8209338818 -0.4550747677 -2.8209338818 2.6572751763 -0.8217034363 -0.4550747677 -0.8217034363 13.6208007949"
Fe 0.000000 0.000000 0.000000 0.000000 0.000000 0.000000 26
1 
Lattice="3.0794372079 -0.0406692352 0.3264099444 0.4278848274 2.7961152219 0.4286033213 1.8345783021 1.8547147145 1.6267879929" Properties=species:S:1:pos:R:3:force:R:3:Z:I:1 config_type=prim_random energy=-3459.7642277959 pbc="T T T" virial="7.4595341290 -0.3041487107 0.2402129591 -0.3041487107 1.6547786605 -3.5211402473 0.2402129591 -3.5211402473 3.0756941774"
Fe 0.000000 0.000000 0.000000 0.000000 0.000000 0.000000 26
1 
Lattice="2.8132089542 0.2026014792 0.0361363232 0.0270789714 3.0539917831 0.0201061362 1.3656912540 1.4385308664 1.0771648136" Properties=species:S:1:pos:R:3:force:R:3:Z:I:1 config_type=prim_random energy=-3459.8989070136 pbc="T T T" virial="3.7029359055 -1.3421462924 -0.5762210277 -1.3421462924 3.9476177527 0.7986997411 -0.5762210277 0.7986997411 8.3862975737"
Fe 0.000000 0.000000 0.000000 0.000000 0.000000 0.000000 26
1 
Lattice="3.3310804715 0.2918931678 -0.0129173728 0.2422099358 2.8162280318 0.1989235286 1.4862736514 1.8710796127 1.2317348640" Properties=species:S:1:pos:R:3:force:R:3:Z:I:1 config_type=prim_random energy=-3459.4039570724 pbc="T T T" virial="4.4196735878 -4.2153156919 3.7996354243 -4.2153156919 2.2759850443 -2.6102894060 3.7996354243 -2.6102894060 4.0199202775"
Fe 0.000000 0.000000 0.000000 0.000000 0.000000 0.000000 26
1 
Lattice="2.9620483853 0.1901850913 0.3875691745 -0.0456814196 2.8213642203 0.2740585844 1.6570522645 1.7440957087 1.6262088500" Properties=species:S:1:pos:R:3:force:R:3:Z:I:1 config_type=prim_random energy=-3460.0658567581 pbc="T T T" virial="3.3895873096 2.1330316786 -3.0111072748 2.1330316786 3.2034266629 -2.6532872789 -3.0111072748 -2.6532872789 2.5272964811"
Fe 0.000000 0.000000 0.000000 0.000000 0.000000 0.000000 26
1 
Lattice="3.1753461367 0.4794246516 0.0141460619 -0.0067278092 2.8504587822 0.5266927302 1.3935139523 1.9101390538 1.4911972469" Properties=species:S:1:pos:R:3:force:R:3:Z:I:1 config_type=prim_random energy=-3459.7683228374 pbc="T T T" virial="4.5263174346 -2.9136194693 2.8853292552 -2.9136194693 1.1750758062 -2.4476292152 2.8853292552 -2.4476292152 2.4728334011"
Fe 0.000000 0.000000 0.000000 0.000000 0.000000 0.000000 26
1 
Lattice="3.0846070064 0.0600381017 0.1907507211 0.0433524366 2.8705649762 0.1173375040 1.8320384241 1.9374938057 1.3590903875" Properties=species:S:1:pos:R:3:force:R:3:Z:I:1 config_type=prim_random energy=-3459.7271608541 pbc="T T T" virial="3.9035289550 1.9678042413 -2.2127648072 1.9678042413 1.8502395232 -2.6079876298 -2.2127648072 -2.6079876298 1.9304288344"
Fe 0.000000 0.000000 0.000000 0.000000 0.000000 0.000000 26
1 
Lattice="3.3626123908 0.5233677347 0.4377129529 0.0288420964 3.2063826530 0.4829078249 1.4917018356 1.4779841695 1.4358361428" Properties=species:S:1:pos:R:3:force:R:3:Z:I:1 config_type=prim_random energy=-3460.1561574705 pbc="T T T" virial="1.2905082673 -1.3645827241 -1.4256281715 -1.3645827241 0.0086999150 -1.8544275833 -1.4256281715 -1.8544275833 4.8186680753"
Fe 0.000000 0.000000 0.000000 0.000000 0.000000 0.000000 26
1 
Lattice="2.9759548005 0.0039231178 0.4865239116 0.4020125343 2.8705432463 0.3241110528 1.7151774902 1.6958936018 1.3904150973" Properties=species:S:1:pos:R:3:force:R:3:Z:I:1 config_type=prim_random energy=-3458.8193501042 pbc="T T T" virial="7.2982641200 -1.2136377618 1.2082612041 -1.2136377618 6.1469974315 -0.3909268095 1.2082612041 -0.3909268095 10.8012266485"
Fe 0.000000 0.000000 0.000000 0.000000 0.000000 0.000000 26
1 
Lattice="3.0389513070 0.4291696796 0.4206816984 0.3716093951 3.2523651772 0.2516841330 1.6248102617 1.4284219189 1.3390967585" Properties=species:S:1:pos:R:3:force:R:3:Z:I:1 config_type=prim_random energy=-3459.3487489798 pbc="T T T" virial="4.1948690886 -3.9286034479 -2.9440913676 -3.9286034479 2.6923919855 -0.0492747767 -2.9440913676 -0.0492747767 6.1629747399"
Fe 0.000000 0.000000 0.000000 0.000000 0.000000 0.000000 26
1 
Lattice="3.0665903914 0.4131433105 0.2285373949 0.2586245166 3.0901152503 0.2794686213 1.3576716682 1.3523318789 1.1912725412" Properties=species:S:1:pos:R:3:force:R:3:Z:I:1 config_type=prim_random energy=-3459.6390999109 pbc="T T T" virial="4.9940874676 -1.5000513628 -1.7226191800 -1.5000513628 4.2072738933 -1.2418246384 -1.7226191800 -1.2418246384 7.1156944585"
Fe 0.000000 0.000000 0.000000 0.000000 0.000000 0.000000 26
1 
Lattice="2.8035915441 -0.0430759296 0.1527398331 0.1355796632 2.8006571017 0.1352876230 1.6137607963 1.3769246176 1.1716231645" Properties=species:S:1:pos:R:3:force:R:3:Z:I:1 config_type=prim_random energy=-3459.1264341329 pbc="T T T" virial="6.3389291241 -0.3192867199 -1.6963638173 -0.3192867199 7.1631934051 -0.0814494176 -1.6963638173 -0.0814494176 11.9969378797"
Fe 0.000000 0.000000 0.000000 0.000000 0.000000 0.000000 26
1 
Lattice="3.3000121466 -0.0286423062 0.4953053309 0.1735624310 2.9628985764 0.1076614333 1.3560395028 1.4506829195 1.3240934702" Properties=species:S:1:pos:R:3:force:R:3:Z:I:1 config_type=prim_random energy=-3460.3448663917 pbc="T T T" virial="1.1736942207 -0.8307331989 -0.2828882622 -0.8307331989 0.8347697468 -0.6231711897 -0.2828882622 -0.6231711897 5.2662686158"
Fe 0.000000 0.000000 0.000000 0.000000 0.000000 0.000000 26
1 
Lattice="3.2767422043 -0.0399141850 -0.0616936036 0.0705495838 3.0472503894 0.4599734542 1.7480433391 1.8911713196 1.0674143849" Properties=species:S:1:pos:R:3:force:R:3:Z:I:1 config_type=prim_random energy=-3458.4250578010 pbc="T T T" virial="9.3695926232 0.7604927823 0.0924849291 0.7604927823 6.9614373630 1.6267442414 0.0924849291 1.6267442414 10.6994734043"
Fe 0.000000 0.000000 0.000000 0.000000 0.000000 0.000000 26
1 
Lattice="3.0231777981 0.0623175632 0.5135080083 0.4964272666 2.8958374795 0.0270243158 1.5178090003 1.4815005392 1.3786480356" Properties=species:S:1:pos:R:3:force:R:3:Z:I:1 config_type=prim_random energy=-3460.2799861479 pbc="T T T" virial="1.7969744983 -2.9189002977 -0.3546010769 -2.9189002977 2.3027660782 -0.7690374597 -0.3546010769 -0.7690374597 4.8526267396"
Fe 0.000000 0.000000 0.000000 0.000000 0.000000 0.000000 26
1 
Lattice="2.9602837526 0.4306282960 0.5194555724 0.1262303122 2.9696747413 -0.0048609676 1.4895905529 1.9374887953 1.3170732627" Properties=species:S:1:pos:R:3:force:R:3:Z:I:1 config_type=prim_random energy=-3459.8922619931 pbc="T T T" virial="4.1360213861 -2.4096480192 0.2048672244 -2.4096480192 2.9068867982 -0.4736458720 0.2048672244 -0.4736458720 7.5836971491"
Fe 0.000000 0.000000 0.000000 0.000000 0.000000 0.000000 26
1 
Lattice="3.1667025401 0.3779880453 0.0667737624 0.2195594548 2.9797596105 0.4638564307 1.6749710094 1.7540736589 1.3903220489" Properties=species:S:1:pos:R:3:force:R:3:Z:I:1 config_type=prim_random energy=-3460.1521890980 pbc="T T T" virial="2.8313838089 -3.0810804680 1.0338279238 -3.0810804680 1.3326110682 -1.2008692139 1.0338279238 -1.2008692139 4.8181052784"
Fe 0.000000 0.000000 0.000000 0.000000 0.000000 0.000000 26
1 
Lattice="2.8906426379 -0.0513898490 0.3278510593 0.0103408177 3.2201609141 0.2315161871 1.9067519431 1.4668918458 1.5573958235" Properties=species:S:1:pos:R:3:force:R:3:Z:I:1 config_type=prim_random energy=-3460.3422871605 pbc="T T T" virial="-0.3456454116 0.0816738479 -2.5178006781 0.0816738479 3.8544467169 0.4270978068 -2.5178006781 0.4270978068 0.9918126201"
Fe 0.000000 0.000000 0.000000 0.000000 0.000000 0.000000 26
1 
Lattice="3.2351734301 0.1992175349 0.2813323012 0.2594460920 2.7765260705 0.0944584970 1.8558802593 1.9393289554 1.2659872216" Properties=species:S:1:pos:R:3:force:R:3:Z:I:1 config_type=prim_random energy=-3460.0240685047 pbc="T T T" virial="7.0534488123 -0.1840461260 -0.0933102503 -0.1840461260 2.2656231535 -1.2167257926 -0.0933102503 -1.2167257926 4.4800448533"
Fe 0.000000 0.000000 0.000000 0.000000 0.000000 0.000000 26
1 
Lattice="2.8230313696 0.0713181982 0.4967701172 -0.0592870335 3.2897866555 0.1612594696 1.4555644855 1.6269483696 1.2468312327" Properties=species:S:1:pos:R:3:force:R:3:Z:I:1 config_type=prim_random energy=-3458.5124524734 pbc="T T T" virial="3.8042013968 -0.5032391847 0.3947218466 -0.5032391847 6.1505393818 -0.4888275122 0.3947218466 -0.4888275122 15.8998150915"
Fe 0.000000 0.000000 0.000000 0.000000 0.000000 0.000000 26
1 
Lattice="3.3224079552 0.1527151109 0.3740949573 0.5063706287 3.2587869785 0.0524055580 1.4575392045 1.3592009681 1.6595606560" Properties=species:S:1:pos:R:3:force:R:3:Z:I:1 config_type=prim_random energy=-3460.2964294443 pbc="T T T" virial="-2.1524564574 -0.4427750820 0.2041781159 -0.4427750820 -2.2464174056 0.4709574551 0.2041781159 0.4709574551 -1.9526231855"
Fe 0.000000 0.000000 0.000000 0.000000 0.000000 0.000000 26
1 
Lattice="2.9323785367 0.1444796242 0.0164444294 0.5095483079 2.9455376035 0.1110446728 1.4065316027 1.6784210578 1.0727281805" Properties=species:S:1:pos:R:3:force:R:3:Z:I:1 config_type=prim_random energy=-3458.4433049401 pbc="T T T" virial="5.5306538181 -6.1971707789 1.6159989287 -6.1971707789 8.9127891145 -3.5063948739 1.6159989287 -3.5063948739 10.6795973264"
Fe 0.000000 0.000000 0.000000 0.000000 0.000000 0.000000 26
1 
Lattice="2.8560274858 0.0078616665 -0.0619791853 0.1375448846 3.2429574609 0.4068926662 1.6624168165 1.7673980611 1.1446980765" Properties=species:S:1:pos:R:3:force:R:3:Z:I:1 config_type=prim_random energy=-3459.3008283684 pbc="T T T" virial="3.7800779990 0.5164459834 1.0163320052 0.5164459834 5.1347203262 -0.5421289932 1.0163320052 -0.5421289932 10.8838779482"
Fe 0.000000 0.000000 0.000000 0.000000 0.000000 0.000000 26
1 
Lattice="3.1444003317 -0.0532890042 0.4252774807 0.2083005990 2.9667332938 0.5076355225 1.6611653841 1.9002360037 1.4726831409" Properties=species:S:1:pos:R:3:force:R:3:Z:I:1 config_type=prim_random energy=-3459.1413444758 pbc="T T T" virial="9.5532012123 -0.0095589847 1.1143205793 -0.0095589847 4.9275120746 -1.8778987113 1.1143205793 -1.8778987113 6.4689746848"
Fe 0.000000 0.000000 0.000000 0.000000 0.000000 0.000000 26
1 
Lattice="2.9061757466 0.2904440397 0.5190028617 0.1792956731 2.8750314219 0.0763464600 1.8135792043 1.4801519028 1.4739313438" Properties=species:S:1:pos:R:3:force:R:3:Z:I:1 config_type=prim_random energy=-3459.2362043199 pbc="T T T" virial="4.7829941733 -3.6216195620 -3.7198615605 -3.6216195620 6.5790956499 2.3640789121 -3.7198615605 2.3640789121 4.9174750221"
Fe 0.000000 0.000000 0.000000 0.000000 0.000000 0.000000 26
1 
Lattice="3.2311163570 0.0871086444 0.0859025745 0.5271592701 3.1307926780 0.3507691153 1.3653261486 1.6308555429 1.2891950041" Properties=species:S:1:pos:R:3:force:R:3:Z:I:1 config_type=prim_random energy=-3459.6562754656 pbc="T T T" virial="0.5375753386 -2.8490633660 1.1479404684 -2.8490633660 4.1824704238 -2.5852216056 1.1479404684 -2.5852216056 2.8620126549"
Fe 0.000000 0.000000 0.000000 0.000000 0.000000 0.000000 26
1 
Lattice="3.0336234294 0.3600707734 0.1873182156 -0.0316839019 3.1768284225 0.4048328547 1.6093383801 1.7038697746 1.2250823098" Properties=species:S:1:pos:R:3:force:R:3:Z:I:1 config_type=prim_random energy=-3458.8244789062 pbc="T T T" virial="3.4201461844 -1.9078351863 0.6544995390 -1.9078351863 3.5891268162 -0.3764384036 0.6544995390 -0.3764384036 14.3138347208"
Fe 0.000000 0.000000 0.000000 0.000000 0.000000 0.000000 26
1 
Lattice="3.0757098567 0.4413870796 0.3049212207 0.1459134712 2.9868692057 0.0965273732 1.5606262967 1.8901031921 1.3044011798" Properties=species:S:1:pos:R:3:force:R:3:Z:I:1 config_type=prim_random energy=-3460.1657686681 pbc="T T T" virial="2.8252616649 -2.6961848086 0.6959834443 -2.6961848086 1.4236352722 -0.6857600840 0.6959834443 -0.6857600840 5.6352714813"
Fe 0.000000 0.000000 0.000000 0.000000 0.000000 0.000000 26
1 